/*--------------------------------*- C++ -*----------------------------------*\
| =========                 |                                                 |
| \\      /  F ield         | OpenFOAM: The Open Source CFD Toolbox           |
|  \\    /   O peration     | Version:  v2012                                 |
|   \\  /    A nd           | Website:  www.openfoam.com                      |
|    \\/     M anipulation  |                                                 |
\*---------------------------------------------------------------------------*/
FoamFile
{
    version     2.0;
    format      ascii;
    class       volScalarField;
    location    "0.2";
    object      k;
}
// * * * * * * * * * * * * * * * * * * * * * * * * * * * * * * * * * * * * * //

dimensions      [0 2 -2 0 0 0 0];


internalField   nonuniform List<scalar> 
4736
(
0.00378095
0.00382079
0.00383781
0.00384453
0.00384857
0.00385208
0.0038555
0.00385898
0.00386255
0.00386622
0.00386995
0.00387371
0.00387745
0.00388108
0.00388451
0.00388763
0.00375012
0.0037602
0.00377239
0.00378089
0.00378535
0.0037875
0.0037888
0.00378989
0.00379092
0.00379186
0.00379258
0.00379297
0.0037929
0.00379224
0.0037909
0.00378894
0.00375228
0.00376326
0.00377326
0.0037793
0.00378235
0.00378393
0.00378506
0.00378615
0.00378724
0.00378824
0.00378905
0.00378952
0.00378953
0.00378897
0.00378772
0.00378577
0.00375397
0.00376614
0.00377457
0.00377873
0.00378079
0.00378208
0.00378327
0.00378459
0.00378599
0.00378733
0.00378835
0.00378894
0.00378923
0.00378927
0.0037886
0.00378716
0.00375556
0.00376935
0.00377664
0.003779
0.00378008
0.00378113
0.00378249
0.00378416
0.00378602
0.00378745
0.00378824
0.00378859
0.00378874
0.0037888
0.00378881
0.00378879
0.00375708
0.00377272
0.00377909
0.0037796
0.00377961
0.00378046
0.00378209
0.00378425
0.00378651
0.00378783
0.00378842
0.00378868
0.00378881
0.00378889
0.00378894
0.00378896
0.00375851
0.00377597
0.00378153
0.00378011
0.00377896
0.0037796
0.00378159
0.00378443
0.00378678
0.00378802
0.00378856
0.00378882
0.00378898
0.00378909
0.00378918
0.00378924
0.00375981
0.00377891
0.00378376
0.00378046
0.0037781
0.00377858
0.00378104
0.00378473
0.00378712
0.00378823
0.00378872
0.00378899
0.00378919
0.00378937
0.00378951
0.00378963
0.00376094
0.00378104
0.00378533
0.00378053
0.00377709
0.0037775
0.00378061
0.00378495
0.00378738
0.00378842
0.0037889
0.00378921
0.00378947
0.00378973
0.00378996
0.00379016
0.00376177
0.00378239
0.0037864
0.00378053
0.0037762
0.00377663
0.00378054
0.00378514
0.00378756
0.00378859
0.0037891
0.00378948
0.00378984
0.00379021
0.00379057
0.00379091
0.00376235
0.00378321
0.00378715
0.00378068
0.00377579
0.00377639
0.00378119
0.00378571
0.0037879
0.00378883
0.00378938
0.00378984
0.00379034
0.00379087
0.00379144
0.00379205
0.00376263
0.00378351
0.00378757
0.00378112
0.00377626
0.00377728
0.00378288
0.00378674
0.00378838
0.00378915
0.00378973
0.00379032
0.003791
0.00379181
0.00379275
0.00379365
0.00376254
0.00378337
0.0037877
0.00378201
0.00377795
0.00377977
0.00378473
0.00378755
0.00378879
0.0037895
0.00379016
0.00379094
0.00379194
0.00379321
0.00379495
0.00379497
0.00376205
0.00378269
0.00378761
0.00378352
0.00378097
0.00378372
0.00378685
0.00378843
0.00378923
0.00378991
0.0037907
0.00379176
0.00379328
0.00379565
0.00379581
0.00380838
0.00376113
0.00378119
0.00378723
0.00378558
0.0037851
0.00378682
0.00378821
0.003789
0.00378962
0.00379034
0.00379132
0.00379275
0.00379507
0.0037993
0.0037858
0.00392739
0.00375959
0.00377846
0.00378635
0.00378764
0.00378801
0.00378849
0.00378893
0.00378938
0.00378995
0.00379075
0.00379192
0.0037937
0.00379696
0.0037984
0.00380722
0.00410172
0.00375763
0.00377472
0.00378494
0.00378806
0.0037887
0.00378893
0.00378921
0.00378963
0.00379024
0.00379112
0.00379242
0.00379443
0.00379843
0.0037902
0.00392562
0.00383557
0.00375532
0.00377064
0.00378299
0.00378759
0.00378871
0.00378907
0.00378938
0.00378983
0.00379047
0.0037914
0.00379278
0.0037949
0.0037982
0.00379868
0.0039192
0.0037548
0.00375287
0.00376672
0.00378112
0.00378706
0.00378866
0.00378915
0.0037895
0.00378997
0.00379063
0.00379159
0.003793
0.00379514
0.00379819
0.00380396
0.00390825
0.003693
0.00375103
0.0037639
0.00377983
0.0037867
0.00378861
0.00378919
0.00378957
0.00379004
0.00379072
0.00379169
0.0037931
0.00379524
0.00379823
0.00380414
0.00390168
0.00365799
0.00375102
0.00376389
0.00377983
0.0037867
0.00378861
0.00378919
0.00378957
0.00379004
0.00379072
0.00379169
0.0037931
0.00379524
0.00379823
0.00380414
0.00390167
0.00365798
0.00375285
0.0037667
0.00378111
0.00378706
0.00378866
0.00378915
0.0037895
0.00378997
0.00379063
0.00379159
0.003793
0.00379514
0.00379819
0.00380396
0.00390825
0.00369297
0.0037553
0.00377061
0.00378298
0.00378758
0.00378871
0.00378907
0.00378938
0.00378983
0.00379047
0.0037914
0.00379278
0.0037949
0.0037982
0.00379868
0.00391919
0.00375477
0.00375761
0.00377469
0.00378493
0.00378806
0.0037887
0.00378893
0.00378921
0.00378963
0.00379024
0.00379112
0.00379242
0.00379443
0.00379843
0.0037902
0.0039256
0.00383555
0.00375957
0.00377843
0.00378634
0.00378765
0.00378801
0.00378849
0.00378893
0.00378938
0.00378995
0.00379075
0.00379192
0.0037937
0.00379696
0.0037984
0.00380722
0.00410169
0.00376111
0.00378116
0.00378723
0.0037856
0.00378512
0.00378683
0.00378821
0.003789
0.00378962
0.00379034
0.00379132
0.00379275
0.00379507
0.00379931
0.0037858
0.00392738
0.00376203
0.00378267
0.00378761
0.00378354
0.003781
0.00378374
0.00378686
0.00378843
0.00378923
0.00378991
0.0037907
0.00379176
0.00379328
0.00379565
0.00379581
0.00380839
0.00376252
0.00378335
0.0037877
0.00378204
0.00377798
0.00377979
0.00378474
0.00378756
0.00378879
0.0037895
0.00379016
0.00379094
0.00379194
0.00379321
0.00379495
0.00379498
0.00376261
0.00378349
0.00378757
0.00378114
0.00377629
0.0037773
0.00378288
0.00378674
0.00378838
0.00378915
0.00378973
0.00379032
0.003791
0.00379181
0.00379276
0.00379365
0.00376234
0.00378319
0.00378715
0.0037807
0.00377581
0.00377641
0.0037812
0.00378572
0.0037879
0.00378883
0.00378938
0.00378985
0.00379034
0.00379087
0.00379144
0.00379205
0.00376176
0.00378236
0.00378639
0.00378054
0.00377622
0.00377665
0.00378055
0.00378514
0.00378756
0.00378859
0.0037891
0.00378948
0.00378984
0.00379021
0.00379057
0.00379091
0.00376093
0.00378102
0.00378532
0.00378054
0.00377711
0.00377751
0.00378062
0.00378495
0.00378738
0.00378842
0.0037889
0.00378921
0.00378948
0.00378973
0.00378996
0.00379016
0.0037598
0.00377888
0.00378375
0.00378046
0.0037781
0.00377858
0.00378105
0.00378473
0.00378712
0.00378823
0.00378872
0.00378899
0.00378919
0.00378937
0.00378951
0.00378963
0.0037585
0.00377595
0.00378151
0.0037801
0.00377896
0.0037796
0.00378159
0.00378443
0.00378678
0.00378802
0.00378856
0.00378882
0.00378898
0.00378909
0.00378918
0.00378924
0.00375707
0.0037727
0.00377907
0.00377959
0.00377961
0.00378046
0.00378209
0.00378425
0.00378651
0.00378783
0.00378842
0.00378868
0.00378881
0.00378889
0.00378894
0.00378896
0.00375555
0.00376933
0.00377663
0.003779
0.00378008
0.00378113
0.0037825
0.00378417
0.00378602
0.00378745
0.00378824
0.00378859
0.00378874
0.0037888
0.00378881
0.00378879
0.00375397
0.00376612
0.00377455
0.00377872
0.00378079
0.00378208
0.00378327
0.00378459
0.00378599
0.00378734
0.00378835
0.00378894
0.00378923
0.00378927
0.0037886
0.00378716
0.00375228
0.00376323
0.00377323
0.00377928
0.00378235
0.00378393
0.00378506
0.00378615
0.00378724
0.00378825
0.00378905
0.00378953
0.00378954
0.00378897
0.00378772
0.00378577
0.00375011
0.00376016
0.00377235
0.00378087
0.00378534
0.0037875
0.0037888
0.0037899
0.00379093
0.00379187
0.00379259
0.00379298
0.0037929
0.00379224
0.0037909
0.00378894
0.00378095
0.00382078
0.0038378
0.00384452
0.00384856
0.00385207
0.0038555
0.00385898
0.00386255
0.00386622
0.00386995
0.00387371
0.00387745
0.00388109
0.00388452
0.00388764
0.00389028
0.00389211
0.00389334
0.00389408
0.00389437
0.00389419
0.0038936
0.00389272
0.00378614
0.00378126
0.00377287
0.003764
0.00375759
0.00375514
0.00375704
0.00376275
0.00378314
0.00377977
0.00377577
0.00377184
0.00376891
0.00376759
0.0037682
0.00377058
0.00378507
0.00378248
0.00377967
0.0037771
0.00377534
0.00377476
0.00377544
0.00377709
0.00378857
0.00378726
0.00378534
0.00378343
0.00378203
0.00378148
0.00378185
0.00378295
0.00378894
0.00378888
0.00378876
0.00378863
0.00378849
0.00378839
0.00378834
0.00378836
0.00378926
0.00378925
0.00378921
0.00378914
0.00378908
0.00378903
0.00378901
0.00378902
0.0037897
0.00378972
0.00378968
0.00378961
0.00378953
0.00378947
0.00378943
0.00378942
0.0037903
0.00379036
0.00379032
0.00379022
0.00379009
0.00378999
0.00378993
0.00378991
0.00379118
0.0037913
0.00379122
0.00379102
0.00379079
0.00379062
0.00379052
0.00379051
0.00379259
0.00379279
0.00379258
0.00379213
0.00379167
0.00379135
0.0037912
0.00379121
0.00379371
0.00379389
0.00379381
0.00379327
0.0037926
0.00379212
0.00379194
0.00379202
0.00379086
0.00378809
0.00378888
0.0037908
0.00379187
0.00379231
0.00379259
0.00379304
0.00383943
0.00382113
0.00380032
0.00379388
0.00379575
0.0037972
0.00379759
0.00379792
0.00412136
0.00403371
0.00402736
0.00400201
0.00393104
0.00384905
0.00384402
0.00383434
0.00415169
0.00407014
0.00399004
0.00396163
0.00396478
0.00397886
0.00399582
0.00401947
0.00415165
0.00407011
0.00399004
0.0039616
0.00396472
0.00397879
0.00399577
0.00401945
0.00412131
0.00403366
0.00402741
0.00400204
0.00393103
0.00384897
0.00384392
0.00383426
0.00383938
0.00382126
0.0038006
0.00379413
0.00379591
0.00379728
0.00379763
0.00379794
0.00379085
0.00378813
0.00378897
0.00379089
0.00379193
0.00379235
0.00379261
0.00379305
0.00379372
0.00379389
0.00379382
0.00379328
0.00379261
0.00379213
0.00379194
0.00379202
0.00379259
0.00379279
0.00379258
0.00379213
0.00379168
0.00379135
0.0037912
0.00379121
0.00379118
0.0037913
0.00379123
0.00379102
0.0037908
0.00379062
0.00379052
0.00379051
0.0037903
0.00379036
0.00379033
0.00379022
0.00379009
0.00378999
0.00378993
0.00378991
0.0037897
0.00378972
0.00378968
0.00378961
0.00378953
0.00378947
0.00378943
0.00378942
0.00378926
0.00378925
0.00378921
0.00378914
0.00378908
0.00378903
0.00378901
0.00378902
0.00378894
0.00378888
0.00378877
0.00378863
0.00378849
0.00378839
0.00378834
0.00378836
0.00378857
0.00378726
0.00378535
0.00378343
0.00378203
0.00378148
0.00378185
0.00378295
0.00378507
0.00378248
0.00377967
0.0037771
0.00377533
0.00377476
0.00377544
0.00377709
0.00378314
0.00377976
0.00377576
0.00377182
0.00376888
0.00376756
0.00376817
0.00377055
0.00378614
0.00378124
0.00377281
0.00376392
0.00375749
0.00375502
0.0037569
0.00376262
0.0038903
0.00389212
0.00389336
0.00389409
0.00389438
0.00389421
0.00389362
0.00389274
0.00389174
0.00389034
0.00388824
0.00388553
0.00388241
0.00387907
0.00387565
0.00387225
0.00386894
0.00386578
0.00386277
0.00385984
0.00385703
0.00385442
0.00385205
0.00384994
0.00384808
0.00384646
0.00384504
0.00384382
0.00384277
0.00384187
0.00384111
0.00384045
0.0038399
0.00383944
0.00383904
0.00383871
0.00383842
0.00383818
0.00383798
0.00383781
0.00383767
0.00383755
0.00383745
0.00383737
0.0038373
0.00383724
0.00383719
0.00383715
0.00383712
0.00383709
0.00383707
0.00383705
0.00383704
0.00383703
0.00383702
0.00383701
0.00383701
0.00383701
0.00383701
0.00383701
0.00383701
0.00383701
0.00383701
0.00383702
0.00383702
0.00383703
0.00383703
0.00383704
0.00383704
0.00383705
0.00383706
0.00383707
0.00383707
0.00383708
0.00383709
0.0038371
0.00383711
0.00383712
0.00383713
0.00383713
0.00383714
0.00383715
0.00383716
0.00383717
0.00383718
0.00383719
0.0038372
0.0038372
0.00383721
0.00383722
0.00383722
0.00383722
0.00383722
0.00383722
0.00383721
0.0038372
0.00383718
0.00383717
0.00383715
0.00383719
0.00383703
0.00383756
0.00383728
0.00383734
0.00377064
0.00377817
0.00378361
0.00378685
0.0037886
0.00378932
0.00378926
0.00378857
0.00378738
0.00378592
0.00378384
0.00378051
0.00377575
0.00377023
0.00376476
0.00375983
0.00375558
0.00375198
0.003749
0.00374659
0.0037447
0.00374326
0.00374218
0.00374129
0.00374056
0.00373997
0.00373949
0.00373913
0.00373885
0.00373864
0.00373849
0.00373838
0.00373829
0.00373823
0.00373818
0.00373814
0.00373811
0.00373809
0.00373808
0.00373806
0.00373805
0.00373804
0.00373803
0.00373803
0.00373802
0.00373801
0.00373801
0.003738
0.003738
0.00373799
0.00373799
0.00373798
0.00373798
0.00373797
0.00373797
0.00373797
0.00373796
0.00373796
0.00373795
0.00373795
0.00373794
0.00373794
0.00373794
0.00373793
0.00373793
0.00373792
0.00373792
0.00373791
0.00373791
0.00373791
0.0037379
0.0037379
0.0037379
0.00373789
0.00373789
0.00373788
0.00373788
0.00373788
0.00373788
0.00373787
0.00373787
0.00373787
0.00373787
0.00373787
0.00373787
0.00373787
0.00373787
0.00373788
0.00373788
0.00373789
0.00373789
0.00373787
0.003738
0.0037381
0.00373801
0.00373932
0.00377415
0.00377802
0.00378138
0.0037839
0.00378554
0.00378635
0.0037864
0.00378581
0.00378469
0.00378319
0.00378136
0.00377917
0.00377668
0.00377404
0.00377141
0.00376895
0.00376638
0.00376351
0.00376054
0.00375775
0.0037553
0.00375319
0.0037514
0.00374981
0.00374849
0.0037474
0.00374652
0.00374582
0.00374529
0.00374489
0.00374459
0.00374437
0.00374421
0.00374409
0.003744
0.00374393
0.00374388
0.00374385
0.00374382
0.0037438
0.00374379
0.00374378
0.00374377
0.00374376
0.00374376
0.00374375
0.00374375
0.00374375
0.00374374
0.00374374
0.00374374
0.00374374
0.00374374
0.00374374
0.00374374
0.00374374
0.00374373
0.00374373
0.00374373
0.00374373
0.00374373
0.00374373
0.00374373
0.00374373
0.00374373
0.00374373
0.00374373
0.00374373
0.00374373
0.00374373
0.00374373
0.00374372
0.00374372
0.00374372
0.00374372
0.00374372
0.00374372
0.00374372
0.00374372
0.00374372
0.00374372
0.00374372
0.00374372
0.00374372
0.00374372
0.00374372
0.00374372
0.00374372
0.00374373
0.00374373
0.00374374
0.00374377
0.00374385
0.00374401
0.00374416
0.00374431
0.00377929
0.00378156
0.00378355
0.00378501
0.0037858
0.00378591
0.00378539
0.00378433
0.00378286
0.0037811
0.00377914
0.00377709
0.00377498
0.0037729
0.00377088
0.00376898
0.00376711
0.00376489
0.00376231
0.00375969
0.0037573
0.00375524
0.00375349
0.00375202
0.00375074
0.00374959
0.00374861
0.00374781
0.00374719
0.00374671
0.00374636
0.00374609
0.00374589
0.00374575
0.00374564
0.00374556
0.0037455
0.00374546
0.00374543
0.00374541
0.00374539
0.00374537
0.00374536
0.00374536
0.00374535
0.00374535
0.00374534
0.00374534
0.00374534
0.00374534
0.00374534
0.00374534
0.00374534
0.00374534
0.00374534
0.00374534
0.00374533
0.00374533
0.00374533
0.00374533
0.00374533
0.00374533
0.00374533
0.00374533
0.00374533
0.00374533
0.00374533
0.00374533
0.00374533
0.00374533
0.00374533
0.00374533
0.00374533
0.00374533
0.00374533
0.00374533
0.00374533
0.00374533
0.00374533
0.00374533
0.00374533
0.00374533
0.00374533
0.00374533
0.00374533
0.00374533
0.00374533
0.00374533
0.00374533
0.00374534
0.00374534
0.00374537
0.00374545
0.0037456
0.00374571
0.0037457
0.00378446
0.00378603
0.00378736
0.00378807
0.00378835
0.00378801
0.00378707
0.00378563
0.00378381
0.00378174
0.00377953
0.00377727
0.00377503
0.00377288
0.00377083
0.00376894
0.00376718
0.00376514
0.00376269
0.00376012
0.00375777
0.00375574
0.00375403
0.00375258
0.00375135
0.00375019
0.00374918
0.00374836
0.0037477
0.0037472
0.00374683
0.00374655
0.00374634
0.00374618
0.00374607
0.00374599
0.00374592
0.00374588
0.00374585
0.00374582
0.0037458
0.00374579
0.00374578
0.00374577
0.00374577
0.00374576
0.00374576
0.00374576
0.00374576
0.00374576
0.00374575
0.00374575
0.00374575
0.00374575
0.00374575
0.00374575
0.00374575
0.00374575
0.00374575
0.00374575
0.00374575
0.00374575
0.00374575
0.00374575
0.00374575
0.00374575
0.00374575
0.00374575
0.00374575
0.00374575
0.00374575
0.00374575
0.00374575
0.00374575
0.00374575
0.00374575
0.00374575
0.00374575
0.00374575
0.00374575
0.00374575
0.00374575
0.00374575
0.00374575
0.00374575
0.00374575
0.00374575
0.00374575
0.00374575
0.00374575
0.00374576
0.00374578
0.00374586
0.00374599
0.00374608
0.00374604
0.00378845
0.00378856
0.00378868
0.00378876
0.00378879
0.00378875
0.00378873
0.0037877
0.00378578
0.00378342
0.00378089
0.00377834
0.00377586
0.00377351
0.00377131
0.00376929
0.00376748
0.00376545
0.00376299
0.0037604
0.003758
0.00375592
0.00375419
0.00375273
0.0037515
0.00375035
0.00374933
0.00374849
0.00374783
0.00374732
0.00374694
0.00374665
0.00374644
0.00374628
0.00374617
0.00374608
0.00374602
0.00374598
0.00374594
0.00374592
0.0037459
0.00374589
0.00374588
0.00374587
0.00374586
0.00374586
0.00374586
0.00374586
0.00374585
0.00374585
0.00374585
0.00374585
0.00374585
0.00374585
0.00374585
0.00374585
0.00374585
0.00374585
0.00374585
0.00374585
0.00374585
0.00374585
0.00374585
0.00374585
0.00374585
0.00374585
0.00374585
0.00374585
0.00374585
0.00374585
0.00374585
0.00374585
0.00374585
0.00374585
0.00374585
0.00374585
0.00374585
0.00374585
0.00374585
0.00374585
0.00374585
0.00374585
0.00374585
0.00374585
0.00374585
0.00374585
0.00374585
0.00374585
0.00374585
0.00374585
0.00374585
0.00374587
0.00374596
0.00374608
0.00374615
0.00374611
0.00378903
0.00378906
0.00378907
0.00378907
0.00378904
0.00378899
0.00378891
0.00378885
0.00378767
0.00378536
0.00378256
0.0037797
0.00377693
0.00377434
0.00377195
0.00376978
0.00376785
0.0037658
0.00376334
0.00376071
0.00375825
0.00375611
0.00375433
0.00375284
0.00375159
0.00375042
0.00374939
0.00374853
0.00374786
0.00374735
0.00374696
0.00374667
0.00374646
0.0037463
0.00374619
0.0037461
0.00374604
0.003746
0.00374596
0.00374594
0.00374592
0.00374591
0.0037459
0.00374589
0.00374588
0.00374588
0.00374588
0.00374588
0.00374587
0.00374587
0.00374587
0.00374587
0.00374587
0.00374587
0.00374587
0.00374587
0.00374587
0.00374587
0.00374587
0.00374587
0.00374587
0.00374587
0.00374587
0.00374587
0.00374587
0.00374587
0.00374587
0.00374587
0.00374587
0.00374587
0.00374587
0.00374587
0.00374587
0.00374587
0.00374587
0.00374587
0.00374587
0.00374587
0.00374587
0.00374587
0.00374587
0.00374587
0.00374587
0.00374587
0.00374587
0.00374587
0.00374587
0.00374587
0.00374587
0.00374587
0.00374587
0.00374589
0.00374598
0.0037461
0.00374616
0.00374612
0.00378943
0.00378945
0.00378945
0.00378942
0.00378935
0.00378926
0.00378913
0.003789
0.00378892
0.00378728
0.00378446
0.00378129
0.0037782
0.00377532
0.0037727
0.00377035
0.00376828
0.00376618
0.00376373
0.00376107
0.00375853
0.00375632
0.00375448
0.00375296
0.00375168
0.00375049
0.00374943
0.00374856
0.00374789
0.00374736
0.00374697
0.00374668
0.00374647
0.00374631
0.00374619
0.00374611
0.00374604
0.003746
0.00374597
0.00374594
0.00374592
0.00374591
0.0037459
0.00374589
0.00374589
0.00374588
0.00374588
0.00374588
0.00374588
0.00374588
0.00374588
0.00374587
0.00374587
0.00374587
0.00374587
0.00374587
0.00374587
0.00374587
0.00374587
0.00374587
0.00374587
0.00374587
0.00374587
0.00374587
0.00374587
0.00374587
0.00374587
0.00374587
0.00374587
0.00374587
0.00374587
0.00374587
0.00374587
0.00374587
0.00374587
0.00374587
0.00374587
0.00374587
0.00374587
0.00374587
0.00374587
0.00374587
0.00374587
0.00374587
0.00374587
0.00374587
0.00374587
0.00374587
0.00374587
0.00374587
0.00374588
0.0037459
0.00374599
0.0037461
0.00374615
0.00374612
0.00378993
0.00378995
0.00378994
0.00378988
0.00378976
0.0037896
0.00378942
0.00378923
0.00378907
0.00378869
0.00378636
0.00378306
0.00377965
0.00377645
0.00377357
0.003771
0.00376877
0.00376662
0.00376417
0.00376146
0.00375885
0.00375656
0.00375465
0.00375308
0.00375177
0.00375055
0.00374948
0.0037486
0.00374791
0.00374738
0.00374698
0.00374669
0.00374647
0.00374631
0.00374619
0.00374611
0.00374605
0.003746
0.00374597
0.00374594
0.00374592
0.00374591
0.0037459
0.00374589
0.00374589
0.00374588
0.00374588
0.00374588
0.00374588
0.00374588
0.00374588
0.00374588
0.00374588
0.00374587
0.00374587
0.00374587
0.00374587
0.00374587
0.00374587
0.00374587
0.00374587
0.00374587
0.00374587
0.00374587
0.00374587
0.00374587
0.00374587
0.00374587
0.00374587
0.00374587
0.00374587
0.00374587
0.00374587
0.00374587
0.00374587
0.00374587
0.00374587
0.00374587
0.00374587
0.00374587
0.00374587
0.00374587
0.00374587
0.00374587
0.00374587
0.00374587
0.00374587
0.00374587
0.00374587
0.00374587
0.00374588
0.0037459
0.00374599
0.0037461
0.00374615
0.00374612
0.00379054
0.00379059
0.00379059
0.00379049
0.0037903
0.00379006
0.00378979
0.00378952
0.00378926
0.0037891
0.00378786
0.00378486
0.00378123
0.00377771
0.00377453
0.00377173
0.0037693
0.0037671
0.00376465
0.00376189
0.00375919
0.00375681
0.00375483
0.0037532
0.00375186
0.00375062
0.00374953
0.00374863
0.00374793
0.00374739
0.00374699
0.00374669
0.00374647
0.00374631
0.00374619
0.00374611
0.00374605
0.003746
0.00374597
0.00374594
0.00374592
0.00374591
0.0037459
0.00374589
0.00374589
0.00374588
0.00374588
0.00374588
0.00374588
0.00374588
0.00374588
0.00374588
0.00374588
0.00374587
0.00374587
0.00374587
0.00374587
0.00374587
0.00374587
0.00374587
0.00374587
0.00374587
0.00374587
0.00374587
0.00374587
0.00374587
0.00374587
0.00374587
0.00374587
0.00374587
0.00374587
0.00374587
0.00374587
0.00374587
0.00374587
0.00374587
0.00374587
0.00374587
0.00374587
0.00374587
0.00374587
0.00374587
0.00374587
0.00374587
0.00374587
0.00374587
0.00374587
0.00374587
0.00374587
0.00374587
0.00374588
0.0037459
0.00374599
0.0037461
0.00374615
0.00374611
0.00379132
0.00379145
0.00379148
0.00379134
0.00379104
0.00379066
0.00379026
0.00378989
0.00378954
0.00378924
0.00378905
0.00378667
0.00378294
0.00377909
0.00377558
0.00377252
0.00376988
0.0037676
0.00376515
0.00376234
0.00375954
0.00375707
0.00375502
0.00375333
0.00375195
0.00375069
0.00374958
0.00374866
0.00374795
0.00374741
0.003747
0.0037467
0.00374648
0.00374631
0.0037462
0.00374611
0.00374605
0.003746
0.00374597
0.00374594
0.00374592
0.00374591
0.0037459
0.00374589
0.00374589
0.00374588
0.00374588
0.00374588
0.00374588
0.00374588
0.00374588
0.00374588
0.00374588
0.00374587
0.00374587
0.00374587
0.00374587
0.00374587
0.00374587
0.00374587
0.00374587
0.00374587
0.00374587
0.00374587
0.00374587
0.00374587
0.00374587
0.00374587
0.00374587
0.00374587
0.00374587
0.00374587
0.00374587
0.00374587
0.00374587
0.00374587
0.00374587
0.00374587
0.00374587
0.00374587
0.00374587
0.00374587
0.00374587
0.00374587
0.00374587
0.00374587
0.00374587
0.00374587
0.00374587
0.00374587
0.00374588
0.0037459
0.00374599
0.0037461
0.00374615
0.00374611
0.00379232
0.00379267
0.0037928
0.00379257
0.00379207
0.00379147
0.00379088
0.00379035
0.00378988
0.00378948
0.00378924
0.00378796
0.00378457
0.00378053
0.0037767
0.00377336
0.00377049
0.00376809
0.0037656
0.00376276
0.00375989
0.00375733
0.0037552
0.00375346
0.00375204
0.00375077
0.00374963
0.0037487
0.00374797
0.00374742
0.00374701
0.0037467
0.00374648
0.00374632
0.0037462
0.00374611
0.00374605
0.003746
0.00374597
0.00374594
0.00374592
0.00374591
0.0037459
0.00374589
0.00374589
0.00374588
0.00374588
0.00374588
0.00374588
0.00374588
0.00374588
0.00374588
0.00374588
0.00374587
0.00374587
0.00374587
0.00374587
0.00374587
0.00374587
0.00374587
0.00374587
0.00374587
0.00374587
0.00374587
0.00374587
0.00374587
0.00374587
0.00374587
0.00374587
0.00374587
0.00374587
0.00374587
0.00374587
0.00374587
0.00374587
0.00374587
0.00374587
0.00374587
0.00374587
0.00374587
0.00374587
0.00374587
0.00374587
0.00374587
0.00374587
0.00374587
0.00374587
0.00374587
0.00374587
0.00374587
0.00374588
0.0037459
0.00374599
0.0037461
0.00374614
0.00374611
0.00379379
0.00379455
0.00379485
0.00379448
0.00379361
0.0037926
0.00379169
0.00379092
0.00379029
0.00378977
0.00378937
0.00378907
0.00378621
0.00378202
0.00377788
0.00377423
0.00377114
0.00376856
0.00376601
0.00376315
0.00376022
0.00375758
0.00375538
0.00375359
0.00375213
0.00375084
0.00374969
0.00374874
0.003748
0.00374744
0.00374702
0.00374671
0.00374648
0.00374632
0.0037462
0.00374611
0.00374605
0.003746
0.00374597
0.00374594
0.00374592
0.00374591
0.0037459
0.00374589
0.00374589
0.00374588
0.00374588
0.00374588
0.00374588
0.00374588
0.00374588
0.00374588
0.00374588
0.00374587
0.00374587
0.00374587
0.00374587
0.00374587
0.00374587
0.00374587
0.00374587
0.00374587
0.00374587
0.00374587
0.00374587
0.00374587
0.00374587
0.00374587
0.00374587
0.00374587
0.00374587
0.00374587
0.00374587
0.00374587
0.00374587
0.00374587
0.00374587
0.00374587
0.00374587
0.00374587
0.00374587
0.00374587
0.00374587
0.00374587
0.00374587
0.00374587
0.00374587
0.00374587
0.00374587
0.00374587
0.00374588
0.0037459
0.00374599
0.0037461
0.00374614
0.00374611
0.00379912
0.00380012
0.00379975
0.00379819
0.00379615
0.00379428
0.0037928
0.00379166
0.00379078
0.00379011
0.00378958
0.0037893
0.00378736
0.00378339
0.00377903
0.00377511
0.00377178
0.00376902
0.0037664
0.00376352
0.00376054
0.00375783
0.00375555
0.0037537
0.00375221
0.00375091
0.00374974
0.00374878
0.00374802
0.00374745
0.00374703
0.00374671
0.00374649
0.00374632
0.0037462
0.00374611
0.00374605
0.003746
0.00374597
0.00374594
0.00374592
0.00374591
0.0037459
0.00374589
0.00374589
0.00374588
0.00374588
0.00374588
0.00374588
0.00374588
0.00374588
0.00374588
0.00374588
0.00374587
0.00374587
0.00374587
0.00374587
0.00374587
0.00374587
0.00374587
0.00374587
0.00374587
0.00374587
0.00374587
0.00374587
0.00374587
0.00374587
0.00374587
0.00374587
0.00374587
0.00374587
0.00374587
0.00374587
0.00374587
0.00374587
0.00374587
0.00374587
0.00374587
0.00374587
0.00374587
0.00374587
0.00374587
0.00374587
0.00374587
0.00374587
0.00374587
0.00374587
0.00374587
0.00374587
0.00374587
0.00374588
0.0037459
0.00374599
0.0037461
0.00374614
0.00374611
0.00380948
0.00379465
0.00379899
0.00380193
0.00379976
0.00379664
0.00379423
0.00379254
0.00379134
0.00379047
0.00378982
0.00378941
0.0037884
0.00378469
0.00378016
0.00377597
0.0037724
0.00376947
0.00376678
0.00376388
0.00376085
0.00375806
0.00375571
0.00375381
0.00375229
0.00375097
0.00374979
0.00374881
0.00374804
0.00374746
0.00374703
0.00374672
0.00374649
0.00374632
0.0037462
0.00374611
0.00374605
0.003746
0.00374597
0.00374594
0.00374592
0.00374591
0.0037459
0.00374589
0.00374589
0.00374588
0.00374588
0.00374588
0.00374588
0.00374588
0.00374588
0.00374588
0.00374588
0.00374587
0.00374587
0.00374587
0.00374587
0.00374587
0.00374587
0.00374587
0.00374587
0.00374587
0.00374587
0.00374587
0.00374587
0.00374587
0.00374587
0.00374587
0.00374587
0.00374587
0.00374587
0.00374587
0.00374587
0.00374587
0.00374587
0.00374587
0.00374587
0.00374587
0.00374587
0.00374587
0.00374587
0.00374587
0.00374587
0.00374587
0.00374587
0.00374587
0.00374587
0.00374587
0.00374587
0.00374587
0.00374588
0.0037459
0.00374599
0.0037461
0.00374614
0.00374611
0.00397559
0.00408182
0.00402598
0.00389661
0.00383018
0.0038063
0.00379768
0.00379399
0.00379206
0.00379088
0.00379007
0.00378952
0.00378912
0.00378585
0.00378121
0.00377676
0.00377298
0.00376988
0.00376712
0.0037642
0.00376112
0.00375826
0.00375585
0.00375391
0.00375235
0.00375103
0.00374984
0.00374884
0.00374806
0.00374748
0.00374704
0.00374672
0.00374649
0.00374632
0.0037462
0.00374611
0.00374605
0.003746
0.00374597
0.00374594
0.00374592
0.00374591
0.0037459
0.00374589
0.00374589
0.00374588
0.00374588
0.00374588
0.00374588
0.00374588
0.00374588
0.00374588
0.00374588
0.00374587
0.00374587
0.00374587
0.00374587
0.00374587
0.00374587
0.00374587
0.00374587
0.00374587
0.00374587
0.00374587
0.00374587
0.00374587
0.00374587
0.00374587
0.00374587
0.00374587
0.00374587
0.00374587
0.00374587
0.00374587
0.00374587
0.00374587
0.00374587
0.00374587
0.00374587
0.00374587
0.00374587
0.00374587
0.00374587
0.00374587
0.00374587
0.00374587
0.00374587
0.00374587
0.00374587
0.00374587
0.00374588
0.0037459
0.00374599
0.0037461
0.00374614
0.00374611
0.0039468
0.00430726
0.0042143
0.00393688
0.00382767
0.00380344
0.00379735
0.00379438
0.00379247
0.00379118
0.00379028
0.00378963
0.00378933
0.00378663
0.00378205
0.00377745
0.00377348
0.00377023
0.00376742
0.00376448
0.00376136
0.00375844
0.00375597
0.00375399
0.00375241
0.00375108
0.00374988
0.00374887
0.00374808
0.00374749
0.00374705
0.00374673
0.00374649
0.00374632
0.0037462
0.00374611
0.00374605
0.003746
0.00374597
0.00374594
0.00374592
0.00374591
0.0037459
0.00374589
0.00374589
0.00374588
0.00374588
0.00374588
0.00374588
0.00374588
0.00374588
0.00374588
0.00374588
0.00374587
0.00374587
0.00374587
0.00374587
0.00374587
0.00374587
0.00374587
0.00374587
0.00374587
0.00374587
0.00374587
0.00374587
0.00374587
0.00374587
0.00374587
0.00374587
0.00374587
0.00374587
0.00374587
0.00374587
0.00374587
0.00374587
0.00374587
0.00374587
0.00374587
0.00374587
0.00374587
0.00374587
0.00374587
0.00374587
0.00374587
0.00374587
0.00374587
0.00374587
0.00374587
0.00374587
0.00374587
0.00374588
0.0037459
0.00374599
0.0037461
0.00374614
0.00374611
0.00368416
0.00428776
0.00411982
0.00387126
0.00380475
0.00379737
0.00379601
0.00379425
0.00379262
0.00379136
0.00379042
0.00378973
0.00378938
0.00378714
0.00378268
0.00377798
0.00377388
0.00377052
0.00376766
0.0037647
0.00376155
0.00375858
0.00375607
0.00375405
0.00375245
0.00375112
0.00374991
0.00374889
0.0037481
0.0037475
0.00374705
0.00374673
0.0037465
0.00374633
0.0037462
0.00374611
0.00374605
0.003746
0.00374597
0.00374594
0.00374592
0.00374591
0.0037459
0.00374589
0.00374589
0.00374588
0.00374588
0.00374588
0.00374588
0.00374588
0.00374588
0.00374588
0.00374588
0.00374587
0.00374587
0.00374587
0.00374587
0.00374587
0.00374587
0.00374587
0.00374587
0.00374587
0.00374587
0.00374587
0.00374587
0.00374587
0.00374587
0.00374587
0.00374587
0.00374587
0.00374587
0.00374587
0.00374587
0.00374587
0.00374587
0.00374587
0.00374587
0.00374587
0.00374587
0.00374587
0.00374587
0.00374587
0.00374587
0.00374587
0.00374587
0.00374587
0.00374587
0.00374587
0.00374587
0.00374587
0.00374588
0.0037459
0.00374599
0.0037461
0.00374614
0.00374611
0.00360328
0.00411272
0.0039444
0.00380798
0.00378996
0.00379428
0.00379531
0.00379413
0.00379266
0.00379143
0.0037905
0.00378979
0.00378941
0.00378749
0.00378311
0.00377835
0.00377416
0.00377072
0.00376783
0.00376486
0.00376168
0.00375868
0.00375614
0.00375409
0.00375248
0.00375114
0.00374993
0.00374891
0.00374811
0.0037475
0.00374706
0.00374673
0.0037465
0.00374633
0.0037462
0.00374611
0.00374605
0.003746
0.00374597
0.00374594
0.00374592
0.00374591
0.0037459
0.00374589
0.00374589
0.00374588
0.00374588
0.00374588
0.00374588
0.00374588
0.00374588