/*--------------------------------*- C++ -*----------------------------------*\
| =========                 |                                                 |
| \\      /  F ield         | OpenFOAM: The Open Source CFD Toolbox           |
|  \\    /   O peration     | Version:  v2012                                 |
|   \\  /    A nd           | Website:  www.openfoam.com                      |
|    \\/     M anipulation  |                                                 |
\*---------------------------------------------------------------------------*/
FoamFile
{
    version     2.0;
    format      ascii;
    class       volScalarField;
    location    "0.2";
    object      nut;
}
// * * * * * * * * * * * * * * * * * * * * * * * * * * * * * * * * * * * * * //

dimensions      [0 2 -1 0 0 0 0];


internalField   nonuniform List<scalar> 
4736
(
0.000146703
0.000148024
0.000147769
0.000146714
0.000145472
0.000144226
0.000142984
0.000141734
0.000140473
0.000139206
0.000137945
0.000136704
0.000135506
0.000134372
0.00013333
0.000132405
0.0206113
0.0140891
0.0102972
0.00849767
0.00788029
0.00761525
0.00740837
0.00720446
0.00701931
0.00687751
0.00680371
0.00682361
0.00696753
0.00727698
0.00781553
0.00868394
0.0214819
0.0125095
0.00941028
0.00824168
0.00777652
0.00751743
0.00727199
0.00702432
0.00679977
0.0066217
0.00651141
0.00649045
0.00658358
0.00682375
0.00725896
0.00795977
0.0153142
0.0106155
0.00895185
0.00821153
0.00781812
0.00752896
0.0072226
0.00690806
0.00661892
0.00637864
0.006205
0.00611419
0.00612316
0.00625222
0.00652672
0.00697825
0.0120588
0.00920169
0.0086158
0.00835834
0.00804186
0.00769269
0.00728681
0.00686955
0.00648681
0.00616105
0.00590563
0.00573072
0.00564522
0.00565851
0.00578106
0.00602249
0.0100055
0.00805105
0.0082234
0.00849939
0.00828338
0.0078439
0.00730168
0.00675557
0.00626411
0.00584547
0.00550625
0.00524916
0.00507538
0.0049862
0.0049835
0.00506848
0.00862631
0.00718224
0.00787065
0.00871264
0.00863426
0.00806204
0.00733219
0.00662547
0.0060101
0.00549473
0.00507446
0.00474275
0.00449359
0.00432243
0.00422688
0.00420596
0.00766659
0.00653374
0.00756642
0.00898968
0.00909841
0.00833309
0.00735406
0.00645949
0.00571466
0.00510717
0.00461549
0.00422233
0.00391488
0.00368408
0.00352503
0.00343474
0.00699191
0.00605775
0.00731509
0.00930752
0.00965845
0.00862306
0.0073361
0.00624132
0.005375
0.00468911
0.00414134
0.00370307
0.00335521
0.00308521
0.00288832
0.00275807
0.00652977
0.00572406
0.00711617
0.0095984
0.0102157
0.0088449
0.00723003
0.00595339
0.00499019
0.00424803
0.00366348
0.00319777
0.0028259
0.00253074
0.00230984
0.00215447
0.00624272
0.00551487
0.00696086
0.00972731
0.0105231
0.00884041
0.00697377
0.00557962
0.00456245
0.0037935
0.00319405
0.00271917
0.00233943
0.00203531
0.00180344
0.00160109
0.00611633
0.00542198
0.00683269
0.00953031
0.0102519
0.00844108
0.00651798
0.00511297
0.00409874
0.00333698
0.00274587
0.00228098
0.00190605
0.00161853
0.00140452
0.00119324
0.00615566
0.00544613
0.00671327
0.00893339
0.00930731
0.00763609
0.00588182
0.00457545
0.00361687
0.00288923
0.00232268
0.00188137
0.00152177
0.00126057
0.00103964
0.000808161
0.00638776
0.00559646
0.00658825
0.00804584
0.0080022
0.00663127
0.0051719
0.00402731
0.0031537
0.00247114
0.00192832
0.00149991
0.00115657
0.000900552
0.000679254
0.000389259
0.00687359
0.00589162
0.00644963
0.00708866
0.00674252
0.00566736
0.00450559
0.00353358
0.00275439
0.00212414
0.00160792
0.00118866
0.000841646
0.000596445
0.000399434
0.000231698
0.00773709
0.00636004
0.00629864
0.00623912
0.00572907
0.00487586
0.00395196
0.00313204
0.00244419
0.00187228
0.00139773
0.00101117
0.000677329
0.000464676
0.000222899
0.000235711
0.00924196
0.0070369
0.00614855
0.00557028
0.00498844
0.00428489
0.0035306
0.00283099
0.00222282
0.00170726
0.00128015
0.000926588
0.000642477
0.000419915
0.000218555
0.000156756
0.0120185
0.00793886
0.00601562
0.00508874
0.0044834
0.00387617
0.00323461
0.00262213
0.00207623
0.00160786
0.00122154
0.00090017
0.000672052
0.000432732
0.000364949
0.000160795
0.0178461
0.00897987
0.00590793
0.00477302
0.004168
0.00362097
0.00304881
0.00249261
0.00198885
0.00155331
0.00119426
0.000894637
0.000694195
0.000437084
0.000466963
0.000232134
0.0303365
0.0098102
0.00584057
0.00460995
0.00401279
0.00349731
0.00295927
0.00243087
0.00194827
0.0015294
0.00118388
0.000896144
0.000707689
0.000444416
0.000534747
0.000279048
0.0304243
0.00981323
0.0058403
0.00460966
0.00401263
0.00349725
0.00295927
0.00243088
0.00194828
0.0015294
0.00118388
0.000896144
0.000707689
0.000444419
0.000534758
0.000279048
0.017901
0.0089861
0.00590725
0.00477225
0.00416758
0.00362083
0.0030488
0.00249264
0.00198888
0.00155332
0.00119426
0.000894639
0.000694195
0.000437092
0.000466998
0.000232134
0.0120455
0.00794539
0.00601461
0.00508744
0.00448269
0.00387592
0.00323461
0.00262219
0.00207628
0.00160789
0.00122155
0.000900174
0.000672051
0.000432742
0.000364985
0.000160793
0.00925813
0.00704284
0.00614714
0.00556809
0.00498717
0.00428445
0.00353059
0.00283107
0.00222288
0.00170729
0.00128017
0.000926594
0.000642474
0.000419924
0.000218572
0.00015675
0.00774844
0.0063653
0.00629684
0.00623549
0.0057268
0.00487507
0.0039519
0.00313215
0.00244429
0.00187234
0.00139775
0.00101118
0.000677323
0.000464672
0.00022291
0.000235732
0.00688248
0.00589637
0.00644758
0.00708287
0.00673849
0.00566597
0.00450544
0.00353371
0.00275451
0.00212422
0.00160796
0.00118867
0.000841641
0.000596428
0.000399426
0.000231707
0.00639532
0.00560085
0.00658609
0.00803721
0.00799534
0.00662893
0.00517158
0.00402745
0.00315386
0.00247125
0.00192838
0.00149993
0.00115658
0.000900528
0.000679237
0.00038925
0.00616253
0.00545031
0.00671114
0.00892207
0.00929705
0.00763257
0.00588126
0.00457557
0.00361705
0.00288936
0.00232277
0.00188142
0.00152181
0.00126059
0.00103967
0.000808166
0.00612293
0.00542608
0.00683073
0.00951786
0.0102396
0.00843675
0.00651721
0.00511307
0.00409894
0.00333713
0.00274598
0.00228107
0.00190611
0.00161858
0.00140457
0.00119329
0.00624938
0.00551899
0.00695919
0.00971597
0.010512
0.00883627
0.00697297
0.00557971
0.00456264
0.00379364
0.00319416
0.00271926
0.00233951
0.00203536
0.00180349
0.00160114
0.0065368
0.00572833
0.00711489
0.00958966
0.0102079
0.00884175
0.00722934
0.00595344
0.00499035
0.00424816
0.00366357
0.00319784
0.00282597
0.00253079
0.00230988
0.0021545
0.00699963
0.0060623
0.00731428
0.00930169
0.00965386
0.00862101
0.00733553
0.0062413
0.00537509
0.00468919
0.0041414
0.00370313
0.00335526
0.00308525
0.00288834
0.00275808
0.00767538
0.00653873
0.00756621
0.00898636
0.00909609
0.00833189
0.00735359
0.00645937
0.00571465
0.00510719
0.00461551
0.00422236
0.00391491
0.0036841
0.00352503
0.00343473
0.00863668
0.00718791
0.00787127
0.0087113
0.00863333
0.00806135
0.00733175
0.00662523
0.00600997
0.00549466
0.00507442
0.00474273
0.00449359
0.00432242
0.00422685
0.0042059
0.0100182
0.00805775
0.00822514
0.00849957
0.00828322
0.00784341
0.00730118
0.0067552
0.00626384
0.00584529
0.00550612
0.00524908
0.00507532
0.00498614
0.00498342
0.00506837
0.0120747
0.00920996
0.00861899
0.00835964
0.00804202
0.00769215
0.00728614
0.00686898
0.00648637
0.00616073
0.0059054
0.00573055
0.00564509
0.00565839
0.00578092
0.00602232
0.0153354
0.010626
0.00895666
0.00821361
0.00781837
0.00752827
0.00722173
0.00690729
0.00661832
0.00637818
0.00620466
0.00611393
0.00612295
0.00625205
0.00652657
0.00697812
0.0215137
0.0125237
0.00941704
0.00824446
0.00777681
0.00751659
0.00727092
0.00702335
0.00679896
0.00662104
0.00651088
0.00649003
0.00658325
0.00682354
0.00725896
0.00796014
0.0206052
0.0140808
0.0103056
0.00850058
0.00787992
0.00761329
0.00740596
0.0072021
0.00701717
0.00687561
0.00680204
0.00682217
0.00696636
0.00727619
0.00781544
0.00868522
0.000146703
0.000148024
0.00014777
0.000146717
0.000145474
0.000144228
0.000142986
0.000141736
0.000140474
0.000139207
0.000137945
0.000136704
0.000135505
0.000134371
0.000133328
0.000132403
0.00013162
0.000130986
0.000130529
0.000130261
0.000130197
0.000130347
0.000130699
0.000131236
0.0100716
0.0121117
0.0115027
0.0111367
0.0109012
0.0106121
0.0103067
0.0101173
0.00902992
0.0106002
0.012735
0.0149911
0.0162035
0.0156866
0.0138158
0.0117085
0.00763785
0.00851298
0.00953986
0.0104507
0.0108218
0.0104745
0.00967623
0.00879265
0.00638514
0.00685196
0.00736698
0.00781095
0.00802857
0.00793828
0.00761356
0.00720152
0.00523914
0.00548584
0.00577951
0.00605709
0.00623043
0.00624044
0.00610842
0.00590942
0.0042603
0.00438934
0.0045783
0.00478362
0.00493726
0.00498918
0.00494575
0.00485244
0.0034188
0.00348941
0.00363949
0.00382613
0.00397906
0.00404834
0.00403942
0.0039893
0.00270006
0.00273946
0.00288582
0.00309028
0.00325729
0.00332956
0.0033239
0.00327985
0.00209
0.00212896
0.00228245
0.00251716
0.00271049
0.00278022
0.00275803
0.00269448
0.00151865
0.00160464
0.00182283
0.00210213
0.00230831
0.00236446
0.00231488
0.00221168
0.00105828
0.00109551
0.00138808
0.00181898
0.00207462
0.00207623
0.00196651
0.0018025
0.000744771
0.000736752
0.000938135
0.00143522
0.00195988
0.00199251
0.00176096
0.00145248
0.000418065
0.000622978
0.000757199
0.00105946
0.00166566
0.00187898
0.00158175
0.00114873
0.000306952
0.000998142
0.000739949
0.000785771
0.00174401
0.0112881
0.0015463
0.000585911
0.000117201
0.000148342
0.000139265
0.000121388
0.0001125
0.000109825
0.000106274
0.000112509
0.000117203
0.000148347
0.000139241
0.000121386
0.000112515
0.000109837
0.000106275
0.000112503
0.000306963
0.00099855
0.000739729
0.000785776
0.00174434
0.0113229
0.00154738
0.0005859
0.000418029
0.000622965
0.000757468
0.00106021
0.00166521
0.00187709
0.0015811
0.00114854
0.000744753
0.000736771
0.000938252
0.0014352
0.0019584
0.00199075
0.00176027
0.00145236
0.0010583
0.00109553
0.00138818
0.00181895
0.00207378
0.00207522
0.00196596
0.00180229
0.00151868
0.00160469
0.00182292
0.00210204
0.00230781
0.00236382
0.00231443
0.00221143
0.00209003
0.002129
0.00228248
0.00251706
0.00271013
0.00277973
0.00275762
0.00269421
0.00270007
0.00273946
0.0028858
0.00309015
0.00325699
0.00332916
0.00332354
0.00327957
0.00341877
0.00348937
0.00363942
0.00382598
0.00397879
0.00404801
0.0040391
0.00398903
0.00426023
0.00438924
0.00457817
0.00478342
0.00493698
0.00498888
0.00494546
0.00485219
0.005239
0.00548566
0.00577929
0.00605681
0.00623011
0.00624013
0.00610814
0.00590919
0.00638492
0.00685168
0.00736662
0.00781051
0.00802811
0.0079379
0.00761328
0.00720132
0.00763774
0.0085129
0.00953998
0.0104511
0.0108224
0.0104753
0.00967689
0.008793
0.00903109
0.0106031
0.0127415
0.0150034
0.0162182
0.0156987
0.0138234
0.0117126
0.0100763
0.0121082
0.0115008
0.0111362
0.0109015
0.0106128
0.0103068
0.0101148
0.000131618
0.000130983
0.000130525
0.000130257
0.000130193
0.000130343
0.000130695
0.000131232
0.000131942
0.000132778
0.00013371
0.00013471
0.000135756
0.000136825
0.000137892
0.000138938
0.000139946
0.000140902
0.000141795
0.000142617
0.000143364
0.000144041
0.000144648
0.000145191
0.000145674
0.0001461
0.000146474
0.000146801
0.000147086
0.000147334
0.000147548
0.000147733
0.000147895
0.000148036
0.000148158
0.000148262
0.000148352
0.000148427
0.000148492
0.000148547
0.000148594
0.000148634
0.000148667
0.000148696
0.00014872
0.00014874
0.000148758
0.000148772
0.000148784
0.000148794
0.000148802
0.000148809
0.000148815
0.000148819
0.000148823
0.000148826
0.000148828
0.000148829
0.000148831
0.000148831
0.000148832
0.000148832
0.000148832
0.000148831
0.000148831
0.00014883
0.000148829
0.000148828
0.000148827
0.000148826
0.000148825
0.000148823
0.000148822
0.00014882
0.000148819
0.000148817
0.000148816
0.000148814
0.000148812
0.00014881
0.000148809
0.000148807
0.000148805
0.000148804
0.000148802
0.0001488
0.000148799
0.000148797
0.000148796
0.000148795
0.000148794
0.000148793
0.000148793
0.000148793
0.000148794
0.000148795
0.000148796
0.000148797
0.000148798
0.000148792
0.000148825
0.000148678
0.000148841
0.000148721
0.0101466
0.00900235
0.00821848
0.00776095
0.00754276
0.0075136
0.00764499
0.00792255
0.00834186
0.00890602
0.00962594
0.0102548
0.010165
0.0101151
0.0101033
0.0101364
0.0102109
0.0103081
0.0104136
0.0105224
0.0106338
0.0107496
0.0108681
0.0109445
0.0109929
0.0110265
0.0110531
0.0110758
0.0110955
0.0111126
0.0111273
0.01114
0.0111509
0.0111602
0.0111682
0.0111751
0.011181
0.011186
0.0111903
0.011194
0.0111971
0.0111998
0.0112021
0.011204
0.0112057
0.0112071
0.0112083
0.0112093
0.0112101
0.0112108
0.0112113
0.0112117
0.011212
0.0112122
0.0112123
0.0112124
0.0112125
0.0112126
0.0112126
0.0112127
0.0112127
0.0112128
0.0112128
0.0112128
0.0112129
0.0112129
0.0112129
0.0112129
0.011213
0.011213
0.011213
0.011213
0.011213
0.0112129
0.0112129
0.0112129
0.0112129
0.0112128
0.0112128
0.0112127
0.0112126
0.0112124
0.0112121
0.0112116
0.0112105
0.0112091
0.0112078
0.0112069
0.0112069
0.0112082
0.0112109
0.0112133
0.0112219
0.0112351
0.0110907
0.0117242
0.0100205
0.00884391
0.00807761
0.00761617
0.00738823
0.0073485
0.00746953
0.00773712
0.00814706
0.00870242
0.00941202
0.0102884
0.0113483
0.012619
0.0141352
0.0159354
0.0180652
0.0205808
0.023553
0.0270707
0.0312556
0.0364024
0.0399363
0.039432
0.0392328
0.0391163
0.0390275
0.0389527
0.0388888
0.0388343
0.0387878
0.0387482
0.0387144
0.0386855
0.0386609
0.0386398
0.0386219
0.0386066
0.0385935
0.0385823
0.0385728
0.0385647
0.0385578
0.0385519
0.0385468
0.0385426
0.0385389
0.0385358
0.0385331
0.0385309
0.0385288
0.038527
0.0385254
0.0385243
0.0385239
0.0385239
0.0385241
0.0385242
0.0385243
0.0385245
0.0385246
0.0385247
0.0385248
0.0385248
0.0385249
0.038525
0.038525
0.0385251
0.0385251
0.0385251
0.0385252
0.0385252
0.0385252
0.0385252
0.0385252
0.0385251
0.0385251
0.0385251
0.038525
0.0385249
0.0385247
0.0385244
0.0385241
0.0385236
0.0385236
0.0385244
0.0385249
0.0385245
0.0385224
0.0385212
0.0385233
0.0385274
0.038538
0.0385468
0.0383935
0.0395683
0.00803628
0.00747462
0.00710659
0.0069144
0.00687965
0.00698643
0.00722393
0.0075881
0.00808116
0.00871018
0.00948596
0.0104229
0.0115454
0.0128857
0.0144773
0.0163602
0.0185809
0.0211905
0.0242496
0.0278334
0.0320238
0.0369588
0.0429352
0.0503424
0.0564075
0.0562515
0.0561746
0.0561278
0.0560936
0.0560663
0.0560436
0.0560246
0.0560086
0.055995
0.0559836
0.0559739
0.0559656
0.0559586
0.0559527
0.0559476
0.0559433
0.0559397
0.0559366
0.0559339
0.0559317
0.0559298
0.0559281
0.0559268
0.0559256
0.0559246
0.0559237
0.0559229
0.0559222
0.0559217
0.0559213
0.0559212
0.0559211
0.0559212
0.0559212
0.0559213
0.0559213
0.0559214
0.0559214
0.0559214
0.0559215
0.0559215
0.0559215
0.0559215
0.0559215
0.0559216
0.0559216
0.0559216
0.0559216
0.0559216
0.0559216
0.0559216
0.0559216
0.0559215
0.0559215
0.0559215
0.0559214
0.0559213
0.0559212
0.0559211
0.0559211
0.0559213
0.0559215
0.0559214
0.055921
0.0559208
0.0559213
0.0559228
0.055926
0.0559276
0.0559045
0.0563239
0.00681628
0.0065184
0.00633417
0.0062727
0.00633441
0.00651418
0.00680818
0.00721758
0.00774863
0.00841134
0.00921908
0.0101894
0.0113452
0.012714
0.0143279
0.0162249
0.0184491
0.0210489
0.0240813
0.0276169
0.031736
0.0365302
0.0422014
0.0494326
0.0582918
0.0604952
0.0604618
0.0604431
0.0604309
0.0604219
0.060415
0.0604094
0.0604049
0.0604012
0.0603982
0.0603958
0.0603937
0.060392
0.0603906
0.0603895
0.0603885
0.0603876
0.0603869
0.0603864
0.0603859
0.0603855
0.0603851
0.0603848
0.0603846
0.0603843
0.0603842
0.060384
0.0603839
0.0603838
0.0603837
0.0603836
0.0603836
0.0603836
0.0603836
0.0603836
0.0603836
0.0603836
0.0603836
0.0603836
0.0603836
0.0603836
0.0603836
0.0603837
0.0603837
0.0603837
0.0603837
0.0603837
0.0603837
0.0603837
0.0603837
0.0603837
0.0603837
0.0603837
0.0603837
0.0603836
0.0603836
0.0603836
0.0603836
0.0603836
0.0603836
0.0603836
0.0603836
0.0603837
0.0603836
0.0603836
0.0603837
0.0603842
0.0603851
0.060386
0.0603863
0.0604615
0.00571457
0.00557099
0.00550814
0.00554317
0.00568163
0.00592175
0.00626267
0.00670725
0.00726482
0.00794805
0.00877201
0.0097555
0.0109222
0.0123008
0.0139244
0.0158322
0.01807
0.0206883
0.0237464
0.0273179
0.0314919
0.0363774
0.0421463
0.0492873
0.0580257
0.0611898
0.0611773
0.0611686
0.0611623
0.0611576
0.0611541
0.0611514
0.0611494
0.0611478
0.0611466
0.0611457
0.061145
0.0611445
0.061144
0.0611437
0.0611434
0.0611432
0.0611431
0.0611429
0.0611428
0.0611427
0.0611427
0.0611426
0.0611425
0.0611425
0.0611425
0.0611424
0.0611424
0.0611424
0.0611424
0.0611424
0.0611424
0.0611424
0.0611424
0.0611424
0.0611424
0.0611424
0.0611424
0.0611424
0.0611424
0.0611424
0.0611424
0.0611424
0.0611424
0.0611424
0.0611424
0.0611424
0.0611424
0.0611424
0.0611424
0.0611424
0.0611424
0.0611424
0.0611424
0.0611424
0.0611424
0.0611424
0.0611424
0.0611424
0.0611424
0.0611424
0.0611424
0.0611424
0.0611424
0.0611424
0.0611424
0.0611427
0.0611434
0.0611441
0.061145
0.0611533
0.00475785
0.00470151
0.004715
0.00481875
0.00501782
0.00530788
0.00568736
0.00616336
0.00674636
0.00744956
0.00828906
0.00928471
0.0104609
0.0118463
0.0134744
0.0153846
0.0176228
0.0202405
0.0232976
0.0268674
0.0310386
0.0359134
0.0416367
0.0487067
0.0574438
0.0612821
0.0612751
0.0612688
0.0612638
0.0612599
0.061257
0.0612547
0.0612531
0.0612519
0.061251
0.0612503
0.0612498
0.0612494
0.0612491
0.0612489
0.0612488
0.0612487
0.0612486
0.0612485
0.0612485
0.0612484
0.0612484
0.0612484
0.0612484
0.0612484
0.0612484
0.0612483
0.0612483
0.0612483
0.0612483
0.0612483
0.0612483
0.0612483
0.0612483
0.0612483
0.0612483
0.0612483
0.0612483
0.0612483
0.0612483
0.0612483
0.0612483
0.0612483
0.0612483
0.0612483
0.0612483
0.0612483
0.0612483
0.0612483
0.0612483
0.0612483
0.0612483
0.0612483
0.0612483
0.0612483
0.0612483
0.0612483
0.0612483
0.0612483
0.0612483
0.0612483
0.0612483
0.0612483
0.0612483
0.0612483
0.0612484
0.0612486
0.0612492
0.0612499
0.0612504
0.0612495
0.0039369
0.00391966
0.00397373
0.00412213
0.00436567
0.00469356
0.00510174
0.00559962
0.00620284
0.0069231
0.00777531
0.00878029
0.00996353
0.0113542
0.0129861
0.0148985
0.0171379
0.0197564
0.0228135
0.0263814
0.0305458
0.0353997
0.0410653
0.048043
0.0567842
0.061293
0.0612871
0.0612813
0.0612765
0.0612726
0.0612697
0.0612676
0.061266
0.0612648
0.0612639
0.0612633
0.0612628
0.0612625
0.0612622
0.061262
0.0612619
0.0612618
0.0612617
0.0612617
0.0612616
0.0612616
0.0612616
0.0612615
0.0612615
0.0612615
0.0612615
0.0612615
0.0612615
0.0612615
0.0612615
0.0612615
0.0612615
0.0612615
0.0612615
0.0612615
0.0612615
0.0612615
0.0612615
0.0612615
0.0612615
0.0612615
0.0612615
0.0612615
0.0612615
0.0612615
0.0612615
0.0612615
0.0612615
0.0612615
0.0612615
0.0612615
0.0612615
0.0612615
0.0612615
0.0612615
0.0612615
0.0612615
0.0612615
0.0612615
0.0612615
0.0612615
0.0612615
0.0612615
0.0612615
0.0612615
0.0612616
0.0612618
0.0612624
0.0612631
0.0612635
0.0612615
0.0032322
0.00322119
0.00329163
0.00346819
0.00374365
0.00409791
0.00452388
0.00503485
0.00565011
0.00638325
0.00724475
0.00825571
0.00944313
0.0108367
0.0124704
0.0143837
0.0166232
0.0192418
0.0222988
0.0258648
0.0300235
0.0348625
0.0404937
0.0474112
0.0561436
0.0612944
0.0612886
0.0612829
0.061278
0.0612742
0.0612713
0.0612691
0.0612675
0.0612663
0.0612654
0.0612648
0.0612643
0.061264
0.0612637
0.0612635
0.0612634
0.0612633
0.0612632
0.0612632
0.0612631
0.0612631
0.0612631
0.0612631
0.061263
0.061263
0.061263
0.061263
0.061263
0.061263
0.061263
0.061263
0.061263
0.061263
0.061263
0.061263
0.061263
0.061263
0.061263
0.061263
0.061263
0.061263
0.061263
0.061263
0.061263
0.061263
0.061263
0.061263
0.061263
0.061263
0.061263
0.061263
0.061263
0.061263
0.061263
0.061263
0.061263
0.061263
0.061263
0.061263
0.061263
0.061263
0.061263
0.061263
0.061263
0.061263
0.0612631
0.0612633
0.0612639
0.0612646
0.0612649
0.0612628
0.00262469
0.00259744
0.00266984
0.00286445
0.00316327
0.0035349
0.00396851
0.00448409
0.00510564
0.00584483
0.00671145
0.00772513
0.00891393
0.0103079
0.0119411
0.0138536
0.016092
0.0187097
0.021766
0.0253305
0.0294856
0.034317
0.0399311
0.0468071
0.0555144
0.0612948
0.061289
0.0612832
0.0612783
0.0612744
0.0612715
0.0612693
0.0612676
0.0612665
0.0612656
0.0612649
0.0612645
0.0612641
0.0612639
0.0612637
0.0612635
0.0612634
0.0612634
0.0612633
0.0612633
0.0612633
0.0612632
0.0612632
0.0612632
0.0612632
0.0612632
0.0612632
0.0612632
0.0612632
0.0612632
0.0612632
0.0612632
0.0612632
0.0612632
0.0612632
0.0612632
0.0612632
0.0612632
0.0612632
0.0612632
0.0612632
0.0612632
0.0612632
0.0612632
0.0612632
0.0612632
0.0612632
0.0612632
0.0612632
0.0612632
0.0612632
0.0612632
0.0612632
0.0612632
0.0612632
0.0612632
0.0612632
0.0612632
0.0612632
0.0612632
0.0612632
0.0612632
0.0612632
0.0612632
0.0612632
0.0612632
0.0612635
0.0612641
0.0612647
0.0612651
0.061263
0.00209687
0.00204345
0.00211824
0.00232563
0.00263669
0.00301292
0.0034431
0.00395726
0.00458187
0.00532207
0.0061883
0.00720126
0.00838875
0.00978059
0.0114111
0.0133209
0.0155568
0.0181728
0.0212282
0.0247921
0.0289467
0.033778
0.0393911
0.0462387
0.0548982
0.061295
0.0612893
0.0612835
0.0612785
0.0612746
0.0612716
0.0612693
0.0612677
0.0612665
0.0612656
0.0612649
0.0612645
0.0612641
0.0612639
0.0612637
0.0612636
0.0612635
0.0612634
0.0612633
0.0612633
0.0612633
0.0612632
0.0612632
0.0612632
0.0612632
0.0612632
0.0612632
0.0612632
0.0612632
0.0612632
0.0612632
0.0612632
0.0612632
0.0612632
0.0612632
0.0612632
0.0612632
0.0612632
0.0612632
0.0612632
0.0612632
0.0612632
0.0612632
0.0612632
0.0612632
0.0612632
0.0612632
0.0612632
0.0612632
0.0612632
0.0612632
0.0612632
0.0612632
0.0612632
0.0612632
0.0612632
0.0612632
0.0612632
0.0612632
0.0612632
0.0612632
0.0612632
0.0612632
0.0612632
0.0612632
0.0612632
0.0612635
0.0612641
0.0612647
0.0612651
0.061263
0.00162136
0.00153134
0.00160762
0.00183613
0.00217143
0.00254804
0.00295996
0.00346445
0.00408872
0.00482535
0.00568477
0.00669445
0.00787894
0.00926658
0.0108925
0.012798
0.0150302
0.0176434
0.0206976
0.0242621
0.0284194
0.0332575
0.038883
0.0457138
0.0543096
0.0612953
0.0612896
0.0612837
0.0612787
0.0612747
0.0612716
0.0612694
0.0612677
0.0612665
0.0612656
0.061265
0.0612645
0.0612641
0.0612639
0.0612637
0.0612636
0.0612635
0.0612634
0.0612633
0.0612633
0.0612633
0.0612632
0.0612632
0.0612632
0.0612632
0.0612632
0.0612632
0.0612632
0.0612632
0.0612632
0.0612632
0.0612632
0.0612632
0.0612632
0.0612632
0.0612632
0.0612632
0.0612632
0.0612632
0.0612632
0.0612632
0.0612632
0.0612632
0.0612632
0.0612632
0.0612632
0.0612632
0.0612632
0.0612632
0.0612632
0.0612632
0.0612632
0.0612632
0.0612632
0.0612632
0.0612632
0.0612632
0.0612632
0.0612632
0.0612632
0.0612632
0.0612632
0.0612632
0.0612632
0.0612632
0.0612632
0.0612635
0.0612641
0.0612647
0.0612651
0.061263
0.0012093
0.00115386
0.00122528
0.00140948
0.00172908
0.00210684
0.00251452
0.00301776
0.00363922
0.00436523
0.0052132
0.00621664
0.0073959
0.00877724
0.0103969
0.0122968
0.0145243
0.0171339
0.0201867
0.0237528
0.0279156
0.0327664
0.038416
0.0452418
0.0537663
0.0612955
0.0612899
0.061284
0.0612788
0.0612748
0.0612717
0.0612694
0.0612677
0.0612665
0.0612656
0.061265
0.0612645
0.0612641
0.0612639
0.0612637
0.0612636
0.0612635
0.0612634
0.0612633
0.0612633
0.0612633
0.0612632
0.0612632
0.0612632
0.0612632
0.0612632
0.0612632
0.0612632
0.0612632
0.0612632
0.0612632
0.0612632
0.0612632
0.0612632
0.0612632
0.0612632
0.0612632
0.0612632
0.0612632
0.0612632
0.0612632
0.0612632
0.0612632
0.0612632
0.0612632
0.0612632
0.0612632
0.0612632
0.0612632
0.0612632
0.0612632
0.0612632
0.0612632
0.0612632
0.0612632
0.0612632
0.0612632
0.0612632
0.0612632
0.0612632
0.0612632
0.0612632
0.0612632
0.0612632
0.0612632
0.0612632
0.0612635
0.0612641
0.0612647
0.0612651
0.061263
0.000764524
0.000716091
0.00086269
0.001123
0.0014266
0.00172446
0.00209327
0.00260188
0.00322511
0.00394076
0.00477925
0.00577532
0.00694829
0.00832259
0.00993533
0.0118289
0.0140508
0.0166564
0.0197077
0.023276
0.0274463
0.0323146
0.0379969
0.0448283
0.0532803
0.0612958
0.0612902
0.0612842
0.061279
0.0612749
0.0612718
0.0612695
0.0612678
0.0612665
0.0612656
0.061265
0.0612645
0.0612641
0.0612639
0.0612637
0.0612636
0.0612635
0.0612634
0.0612633
0.0612633
0.0612633
0.0612632
0.0612632
0.0612632
0.0612632
0.0612632
0.0612632
0.0612632
0.0612632
0.0612632
0.0612632
0.0612632
0.0612632
0.0612632
0.0612632
0.0612632
0.0612632
0.0612632
0.0612632
0.0612632
0.0612632
0.0612632
0.0612632
0.0612632
0.0612632
0.0612632
0.0612632
0.0612632
0.0612632
0.0612632
0.0612632
0.0612632
0.0612632
0.0612632
0.0612632
0.0612632
0.0612632
0.0612632
0.0612632
0.0612632
0.0612632
0.0612632
0.0612632
0.0612632
0.0612632
0.0612632
0.0612635
0.0612641
0.0612647
0.0612651
0.061263
0.000470226
0.000532552
0.000576473
0.000773845
0.00111736
0.001441
0.00179533
0.00228296
0.00287751
0.00356989
0.00439541
0.0053813
0.0065461
0.00791282
0.00951827
0.011405
0.0136211
0.0162223
0.0192719
0.0228427
0.0270215
0.0319101
0.0376303
0.0444757
0.0528602
0.061296
0.0612905
0.0612844
0.0612792
0.061275
0.0612718
0.0612695
0.0612678
0.0612665
0.0612656
0.061265
0.0612645
0.0612641
0.0612639
0.0612637
0.0612636
0.0612635
0.0612634
0.0612633
0.0612633
0.0612633
0.0612632
0.0612632
0.0612632
0.0612632
0.0612632
0.0612632
0.0612632
0.0612632
0.0612632
0.0612632
0.0612632
0.0612632
0.0612632
0.0612632
0.0612632
0.0612632
0.0612632
0.0612632
0.0612632
0.0612632
0.0612632
0.0612632
0.0612632
0.0612632
0.0612632
0.0612632
0.0612632
0.0612632
0.0612632
0.0612632
0.0612632
0.0612632
0.0612632
0.0612632
0.0612632
0.0612632
0.0612632
0.0612632
0.0612632
0.0612632
0.0612632
0.0612632
0.0612632
0.0612632
0.0612632
0.0612635
0.0612641
0.0612647
0.0612651
0.061263
0.000780912
0.000333157
0.000344468
0.00049531
0.000740384
0.00104588
0.00146025
0.00197976
0.00257006
0.00325423
0.00407012
0.00504349
0.00619854
0.00755793
0.00915597
0.0110356
0.0132457
0.0158423
0.0188901
0.0224631
0.0266507
0.0315602
0.0373197
0.0441848
0.0525112
0.0612962
0.0612908
0.0612847
0.0612793
0.0612751
0.0612719
0.0612695
0.0612678
0.0612666
0.0612656
0.061265
0.0612645
0.0612641
0.0612639
0.0612637
0.0612636
0.0612635
0.0612634
0.0612633
0.0612633
0.0612633
0.0612632
0.0612632
0.0612632
0.0612632
0.0612632
0.0612632
0.0612632
0.0612632
0.0612632
0.0612632
0.0612632
0.0612632
0.0612632
0.0612632
0.0612632
0.0612632
0.0612632
0.0612632
0.0612632
0.0612632
0.0612632
0.0612632
0.0612632
0.0612632
0.0612632
0.0612632
0.0612632
0.0612632
0.0612632
0.0612632
0.0612632
0.0612632
0.0612632
0.0612632
0.0612632
0.0612632
0.0612632
0.0612632
0.0612632
0.0612632
0.0612632
0.0612632
0.0612632
0.0612632
0.0612632
0.0612635
0.0612641
0.0612647
0.0612651
0.061263
0.000145689
0.000287663
0.000326124
0.000402709
0.00056348
0.000847021
0.0012569
0.00174571
0.00231646
0.00299773
0.00380672
0.00476873
0.00591434
0.00726686
0.00885766
0.0107303
0.0129343
0.0155263
0.018572
0.0221467
0.0263421
0.0312714
0.0370678
0.0439548
0.0522348
0.0612963
0.061291
0.0612848
0.0612794
0.0612752
0.0612719
0.0612696
0.0612678
0.0612666
0.0612656
0.061265
0.0612645
0.0612641
0.0612639
0.0612637
0.0612636
0.0612635
0.0612634
0.0612633
0.0612633
0.0612633
0.0612632
0.0612632
0.0612632
0.0612632
0.0612632
0.0612632
0.0612632
0.0612632
0.0612632
0.0612632
0.0612632
0.0612632
0.0612632
0.0612632
0.0612632
0.0612632
0.0612632
0.0612632
0.0612632
0.0612632
0.0612632
0.0612632
0.0612632
0.0612632
0.0612632
0.0612632
0.0612632
0.0612632
0.0612632
0.0612632
0.0612632
0.0612632
0.0612632
0.0612632
0.0612632
0.0612632
0.0612632
0.0612632
0.0612632
0.0612632
0.0612632
0.0612632
0.0612632
0.0612632
0.0612632
0.0612635
0.0612641
0.0612647
0.0612651
0.061263
0.000340423
0.000389843
0.000328197
0.000378118
0.000538668
0.000819776
0.00118857
0.00162565
0.00216704
0.00283
0.00362217
0.00456983
0.00570392
0.00704772
0.00863081
0.0104965
0.0126947
0.0152823
0.0183257
0.0219014
0.0261033
0.0310491
0.0368766
0.043784
0.0520302
0.0612964
0.0612911
0.061285
0.0612795
0.0612752
0.061272
0.0612696
0.0612678
0.0612666
0.0612656
0.061265
0.0612645
0.0612641
0.0612639
0.0612637
0.0612636
0.0612635
0.0612634
0.0612633
0.0612633
0.0612633
0.0612632
0.0612632
0.0612632
0.0612632
0.0612632
0.0612632
0.0612632
0.0612632
0.0612632
0.0612632
0.0612632
0.0612632
0.0612632
0.0612632
0.0612632
0.0612632
0.0612632
0.0612632
0.0612632
0.0612632
0.0612632
0.0612632
0.0612632
0.0612632
0.0612632
0.0612632
0.0612632
0.0612632
0.0612632
0.0612632
0.0612632
0.0612632
0.0612632
0.0612632
0.0612632
0.0612632
0.0612632
0.0612632
0.0612632
0.0612632
0.0612632
0.0612632
0.0612632
0.0612632
0.0612632
0.0612635
0.0612641
0.0612647
0.0612651
0.061263
0.000837465
0.00055223
0.000313413
0.000411109
0.000600698
0.000864553
0.00118401
0.00158556
0.00210196
0.00274141
0.00351443
0.00444753
0.00556954
0.00690414
0.0084799
0.0103395
0.0125328
0.0151167
0.018158
0.0217341
0.0259404
0.030898
0.0367477
0.0436709
0.0518952
0.0612702
0.0612913
0.0612851
0.0612796
0.0612753
0.061272
0.0612696
0.0612679
0.0612666
0.0612656
0.061265
0.0612645
0.0612641
0.0612639
0.0612637
0.0612636
0.0612635
0.0612634
0.0612633
0.0612633
0.0612633
0.0612632
0.0612632
0.0612632
0.0612632
0.0612632
0.0612632
0.0612632
0.0612632
0.0612632
0.0612632
0.0612632
0.0612632
0.0612632
0.0612632
0.0612632
0.0612632
0.0612632
0.0612632
0.0612632
0.0612632
0.0612632
0.0612632
0.0612632
0.0612632
0.0612632
0.0612632
0.0612632
0.0612632
0.0612632
0.0612632
0.0612632
0.0612632
0.0612632
0.0612632
0.0612632
0.0612632
0.0612632
0.0612632
0.0612632
0.0612632
0.0612632
0.0612632
0.0612632
0.0612632
0.0612632
0.0612635
0.0612641
0.0612647
0.0612651
0.061263
0.000836775
0.000758981
0.000356303
0.000464845
0.000657686
0.000895381
0.00118716
0.00157338
0.00207688
0.00270299
0.00346518
0.00438974
0.00550443
0.00683339
0.00840473
0.0102608
0.0124511
0.0150329
0.018073
0.0216492
0.0258577
0.0308214
0.0366828
0.0436143
0.0518278
0.0611724
0.0612913
0.0612851
0.0612796
0.0612753
0.061272
0.0612696
0.0612679
0.0612666
0.0612657
0.061265
0.0612645
0.0612641
0.0612639
0.0612637
0.0612636
0.0612635
0.0612634
0.0612633
0.0612633
0.0612633
0.0612632
0.0612632
0.0612632
0.0612632
0.0612632
0.0612632
0.0612632
0.0612632
0.0612632
0.0612632
0.0612632
0.0612632
0.0612632
0.0612632
0.0612632
0.0612632
0.0612632
0.0612632
0.0612632
0.0612632
0.0612632
0.0612632
0.0612632
0.0612632
0.0612632
0.0612632
0.0612632
0.0612632