/*--------------------------------*- C++ -*----------------------------------*\
| =========                 |                                                 |
| \\      /  F ield         | OpenFOAM: The Open Source CFD Toolbox           |
|  \\    /   O peration     | Version:  2112                                  |
|   \\  /    A nd           | Website:  www.openfoam.com                      |
|    \\/     M anipulation  |                                                 |
\*---------------------------------------------------------------------------*/
FoamFile
{
    version     2.0;
    format      ascii;
    class       volScalarField;
    location    "0.12";
    object      omega;
}
// * * * * * * * * * * * * * * * * * * * * * * * * * * * * * * * * * * * * * //

dimensions      [0 0 -1 0 0 0 0];

internalField   nonuniform List<scalar> 
4736
(
4.37655
4.38371
4.38549
4.38647
4.38724
4.38798
4.38873
4.3895
4.39029
4.3911
4.39193
4.39277
4.3936
4.3944
4.39515
4.39583
0.168866
0.236126
0.249121
0.249343
0.248201
0.246654
0.244926
0.243211
0.241668
0.240443
0.239676
0.239518
0.240144
0.241779
0.244746
0.249544
0.0889791
0.0789596
0.0760308
0.0755268
0.0753678
0.075274
0.0752003
0.0751452
0.0751112
0.0750983
0.0751037
0.0751233
0.0751567
0.0752131
0.0753194
0.0755318
0.0861116
0.0702729
0.0648785
0.0636404
0.0633383
0.0633235
0.063411
0.0635408
0.0636879
0.0638353
0.0639639
0.0640547
0.0640916
0.0640618
0.0639615
0.0638005
0.0862621
0.0700362
0.0642567
0.0628407
0.0624893
0.0624842
0.0626085
0.0627902
0.063
0.0632143
0.0633686
0.0634725
0.063535
0.0635563
0.0635338
0.06347
0.0865648
0.0702782
0.0642765
0.0627493
0.0623738
0.0623861
0.06255
0.062788
0.0630712
0.0633028
0.0634824
0.0636251
0.0637344
0.0638056
0.0638328
0.0638131
0.0868298
0.0705157
0.0643203
0.0626868
0.0622903
0.0623259
0.0625391
0.0628503
0.0631815
0.0634486
0.0636749
0.0638764
0.0640512
0.0641904
0.064284
0.0643236
0.0870812
0.0707414
0.0643567
0.0626166
0.0622001
0.0622645
0.062538
0.0629416
0.0633098
0.0636256
0.0639195
0.0642013
0.0644654
0.0646986
0.0648845
0.0650055
0.0872977
0.0709406
0.0643833
0.062544
0.0621109
0.0622103
0.062558
0.0630452
0.0634635
0.0638469
0.06423
0.0646192
0.0650061
0.0653733
0.0656943
0.0659361
0.0874198
0.0710811
0.0643978
0.062481
0.0620394
0.0621813
0.0626203
0.0631636
0.06365
0.0641257
0.0646265
0.0651603
0.0657204
0.0662868
0.0668203
0.0672645
0.0874984
0.0711616
0.0644092
0.0624464
0.0620095
0.0622049
0.0627529
0.0633414
0.0638981
0.0644845
0.065136
0.0658665
0.0666767
0.0675498
0.0684371
0.0692994
0.0875262
0.0711987
0.0644337
0.0624635
0.0620518
0.0623193
0.0629611
0.063582
0.0642202
0.0649428
0.0657906
0.0667929
0.0679758
0.0693315
0.0708173
0.0725171
0.0874964
0.0711902
0.064484
0.0625574
0.0622001
0.0625661
0.0632164
0.0638829
0.0646262
0.0655204
0.066629
0.0680195
0.0697873
0.0719738
0.0748582
0.0761797
0.0874046
0.0711329
0.0645711
0.0627524
0.0624854
0.0629601
0.0635674
0.0642629
0.0651215
0.0662262
0.0676885
0.0696714
0.0724601
0.0763117
0.082947
0.0647729
0.0872489
0.0710264
0.0647
0.0630596
0.0629208
0.0633437
0.0639338
0.0646872
0.0656783
0.067024
0.0689229
0.0717376
0.0762413
0.0833277
0.0820931
0.195039
0.0869455
0.070835
0.0648559
0.0634631
0.0633862
0.0637378
0.0643185
0.0651294
0.0662463
0.0678202
0.0701298
0.0737233
0.0799026
0.0903126
0.0963139
1.74316
0.086598
0.070608
0.0650292
0.0638414
0.0637471
0.0640795
0.0646776
0.0655427
0.0667604
0.0685029
0.0710809
0.075107
0.0818065
0.077054
0.470952
4.39527
0.0861771
0.0703299
0.0651251
0.0640735
0.064013
0.0643608
0.064981
0.0658859
0.0671685
0.0690026
0.07168
0.0757383
0.0819788
0.096703
0.619461
4.36593
0.0858389
0.0700999
0.0651497
0.0642185
0.0641998
0.0645645
0.0652002
0.0661288
0.0674455
0.0693184
0.0720124
0.0759981
0.0818277
0.0957889
0.0220979
4.35179
0.0856749
0.0699943
0.0651659
0.0642962
0.0642991
0.0646723
0.0653154
0.0662544
0.0675848
0.0694694
0.0721558
0.0760736
0.0816599
0.0954479
0.0431383
4.34364
0.0856743
0.0699942
0.065166
0.0642964
0.0642992
0.0646723
0.0653154
0.0662543
0.0675847
0.0694694
0.0721558
0.0760736
0.0816598
0.0954477
0.0431301
4.34364
0.0858365
0.0700988
0.0651499
0.0642189
0.0642
0.0645645
0.0652002
0.0661287
0.0674454
0.0693183
0.0720123
0.075998
0.0818275
0.095788
0.0220817
4.35178
0.0861735
0.0703284
0.0651256
0.0640741
0.0640134
0.0643609
0.0649809
0.0658857
0.0671683
0.0690025
0.0716799
0.0757383
0.0819787
0.0967022
0.619453
4.36592
0.0865942
0.0706067
0.0650307
0.0638427
0.0637478
0.0640797
0.0646776
0.0655425
0.0667603
0.0685028
0.0710808
0.0751071
0.0818067
0.0770524
0.470916
4.39526
0.0869411
0.0708337
0.0648577
0.0634651
0.0633873
0.0637382
0.0643185
0.0651292
0.0662462
0.0678201
0.0701299
0.0737236
0.0799035
0.090314
0.0963086
1.74302
0.0872456
0.0710255
0.0647021
0.0630619
0.0629223
0.0633443
0.0639339
0.0646871
0.0656782
0.0670239
0.0689229
0.071738
0.0762424
0.0833305
0.0820974
0.195017
0.0874013
0.0711321
0.0645733
0.0627548
0.062487
0.0629609
0.0635676
0.0642628
0.0651214
0.0662262
0.0676886
0.0696718
0.0724612
0.0763137
0.0829519
0.0647886
0.0874932
0.0711893
0.0644861
0.0625598
0.0622017
0.0625669
0.0632166
0.0638829
0.0646261
0.0655204
0.0666291
0.0680199
0.0697881
0.0719753
0.0748614
0.0761884
0.0875231
0.0711978
0.0644357
0.0624657
0.0620534
0.06232
0.0629613
0.063582
0.0642202
0.0649428
0.0657907
0.0667932
0.0679764
0.0693326
0.0708194
0.0725214
0.0874954
0.0711607
0.0644109
0.0624483
0.0620109
0.0622056
0.0627531
0.0633414
0.0638981
0.0644845
0.0651361
0.0658667
0.0666772
0.0675506
0.0684385
0.0693017
0.0874169
0.07108
0.0643991
0.0624826
0.0620406
0.062182
0.0626205
0.0631636
0.06365
0.0641258
0.0646266
0.0651605
0.0657207
0.0662874
0.0668212
0.0672658
0.087295
0.0709393
0.0643842
0.0625453
0.0621119
0.0622108
0.0625582
0.0630453
0.0634635
0.0638469
0.0642302
0.0646194
0.0650064
0.0653737
0.0656949
0.0659369
0.0870777
0.0707398
0.0643572
0.0626174
0.0622007
0.0622649
0.0625382
0.0629417
0.0633098
0.0636257
0.0639196
0.0642015
0.0644656
0.064699
0.064885
0.0650061
0.0868268
0.0705141
0.0643204
0.0626873
0.0622907
0.0623262
0.0625392
0.0628504
0.0631816
0.0634487
0.0636751
0.0638766
0.0640514
0.0641907
0.0642842
0.0643239
0.0865616
0.0702761
0.0642762
0.0627495
0.062374
0.0623862
0.06255
0.062788
0.0630712
0.0633027
0.0634823
0.0636251
0.0637344
0.0638056
0.0638328
0.0638132
0.0862597
0.0700343
0.064256
0.0628403
0.0624889
0.0624835
0.0626077
0.0627893
0.062999
0.0632132
0.0633675
0.0634713
0.0635338
0.0635551
0.0635326
0.0634688
0.0861098
0.0702712
0.0648775
0.0636391
0.0633364
0.0633211
0.0634083
0.0635379
0.0636849
0.0638322
0.0639607
0.0640514
0.0640883
0.0640584
0.0639581
0.063797
0.0889829
0.0789634
0.0760319
0.0755251
0.0753642
0.0752697
0.0751957
0.0751406
0.0751066
0.0750937
0.0750991
0.0751188
0.0751522
0.0752086
0.0753149
0.0755276
0.168962
0.236199
0.249153
0.249345
0.248186
0.246632
0.244904
0.243189
0.241647
0.240423
0.239657
0.2395
0.240127
0.241764
0.244734
0.24954
4.37655
4.3837
4.38549
4.38647
4.38724
4.38798
4.38873
4.38949
4.39029
4.3911
4.39193
4.39277
4.3936
4.3944
4.39515
4.39583
4.39638
4.39667
4.39673
4.39674
4.39672
4.39664
4.39657
4.39648
0.256981
0.26838
0.281125
0.286971
0.290915
0.297079
0.30205
0.300719
0.0759519
0.0767502
0.077881
0.0787452
0.0788349
0.0773835
0.0750722
0.0722669
0.0636017
0.0634031
0.0632478
0.0631554
0.0630897
0.062978
0.0628646
0.0627899
0.0633231
0.0631077
0.0628859
0.062707
0.0626013
0.0625801
0.0626439
0.0627758
0.0637486
0.0636495
0.0635357
0.0634328
0.0633642
0.0633428
0.0633688
0.0634305
0.0643058
0.0642369
0.0641367
0.064035
0.0639603
0.0639291
0.0639411
0.0639843
0.0650446
0.0649976
0.0648879
0.0647607
0.0646608
0.0646115
0.0646126
0.0646483
0.0660519
0.0660122
0.0658492
0.0656482
0.0654922
0.065417
0.0654172
0.0654674
0.0674932
0.0674187
0.0671048
0.0667317
0.0664629
0.0663511
0.0663735
0.0664845
0.0697749
0.0695162
0.0687856
0.0680284
0.0675478
0.06739
0.067485
0.0677563
0.073038
0.0723802
0.0708633
0.0694185
0.0686178
0.0684474
0.068733
0.0693765
0.0631344
0.0641716
0.0676615
0.0689017
0.0691102
0.0694983
0.0703137
0.0717757
0.0271236
0.0268528
0.0505344
0.0665492
0.0741936
0.0770203
0.0783247
0.0803734
0.837388
0.6973
0.454183
0.314301
0.242072
0.204784
0.168835
0.123303
4.44433
4.43328
4.42253
4.41928
4.42002
4.42229
4.4257
4.43348
4.44432
4.43328
4.42252
4.41927
4.42001
4.42229
4.4257
4.43348
0.837151
0.697069
0.454163
0.314406
0.24207
0.204683
0.168755
0.123261
0.0270643
0.0276785
0.051043
0.0667628
0.0742872
0.0770597
0.0783424
0.0803836
0.0631356
0.0643032
0.0678107
0.0689992
0.0691641
0.0695265
0.0703284
0.071784
0.0730449
0.0723904
0.0708734
0.0694278
0.068627
0.0684544
0.0687375
0.0693793
0.0697782
0.0695198
0.0687882
0.068031
0.0675502
0.0673917
0.0674861
0.0677568
0.0674949
0.0674205
0.0671065
0.0667333
0.0664642
0.066352
0.0663739
0.0664847
0.0660529
0.0660133
0.0658502
0.0656491
0.0654929
0.0654175
0.0654175
0.0654675
0.0650452
0.0649982
0.0648885
0.0647613
0.0646613
0.0646118
0.0646128
0.0646484
0.0643062
0.0642373
0.0641371
0.0640353
0.0639606
0.0639292
0.0639412
0.0639843
0.0637486
0.0636495
0.0635357
0.0634328
0.0633641
0.0633426
0.0633686
0.0634303
0.063322
0.0631065
0.0628847
0.0627057
0.0625998
0.0625786
0.0626422
0.0627739
0.0635981
0.0633994
0.0632439
0.0631512
0.0630851
0.0629727
0.0628589
0.062784
0.0759486
0.0767498
0.0778784
0.0787412
0.0788318
0.0773799
0.0750719
0.0722707
0.256995
0.26844
0.281142
0.286969
0.2909
0.297058
0.302088
0.300824
4.39638
4.39667
4.39673
4.39675
4.39672
4.39664
4.39657
4.39648
4.3963
4.39591
4.39534
4.39466
4.39393
4.39317
4.3924
4.39166
4.39095
4.39027
4.3896
4.38892
4.38825
4.38762
4.38705
4.38656
4.38613
4.38576
4.38544
4.38517
4.38494
4.38474
4.38458
4.38444
4.38432
4.38422
4.38413
4.38406
4.384
4.38395
4.38391
4.38387
4.38384
4.38382
4.3838
4.38378
4.38376
4.38375
4.38374
4.38373
4.38373
4.38372
4.38372
4.38371
4.38371
4.38371
4.38371
4.3837
4.3837
4.3837
4.3837
4.3837
4.3837
4.3837
4.38371
4.38371
4.38371
4.38371
4.38371
4.38371
4.38371
4.38371
4.38372
4.38372
4.38372
4.38372
4.38372
4.38373
4.38373
4.38373
4.38373
4.38373
4.38374
4.38374
4.38374
4.38374
4.38374
4.38375
4.38375
4.38375
4.38375
4.38375
4.38375
4.38375
4.38375
4.38375
4.38375
4.38374
4.38374
4.38374
4.38374
4.38374
4.38371
4.38396
4.38362
4.38402
0.297985
0.296568
0.29625
0.296424
0.296661
0.296763
0.29671
0.296602
0.296608
0.29693
0.297768
0.299324
0.301801
0.304826
0.306318
0.305734
0.30378
0.301471
0.299142
0.296856
0.29461
0.292375
0.290113
0.288502
0.287552
0.286894
0.286358
0.285903
0.285512
0.285176
0.284888
0.284641
0.28443
0.284248
0.284093
0.283961
0.283847
0.28375
0.283667
0.283597
0.283536
0.283485
0.283441
0.283404
0.283372
0.283345
0.283322
0.283302
0.283286
0.283272
0.283263
0.283256
0.28325
0.283245
0.283242
0.28324
0.283239
0.283237
0.283236
0.283235
0.283233
0.283232
0.283231
0.283231
0.28323
0.283229
0.283228
0.283228
0.283228
0.283227
0.283227
0.283227
0.283227
0.283227
0.283227
0.283227
0.283228
0.283229
0.28323
0.283232
0.283235
0.283239
0.283245
0.283261
0.283287
0.283315
0.28334
0.283353
0.283343
0.2833
0.283241
0.283163
0.282958
0.283052
0.287252
0.251567
0.0696602
0.0675994
0.0661124
0.0651403
0.0646118
0.0644607
0.0646297
0.0650697
0.06574
0.0666071
0.0676446
0.068834
0.0701666
0.0716
0.0729654
0.0741866
0.0752996
0.0763899
0.0775
0.0786502
0.0798547
0.0811297
0.0824698
0.0832755
0.0835757
0.0837521
0.0838922
0.0840112
0.0841137
0.0842023
0.0842788
0.0843449
0.0844018
0.0844508
0.0844929
0.0845291
0.0845601
0.0845867
0.0846095
0.084629
0.0846456
0.0846599
0.0846721
0.0846825
0.0846913
0.0846989
0.0847054
0.0847109
0.0847156
0.0847196
0.0847232
0.0847264
0.0847292
0.0847312
0.0847318
0.0847317
0.0847315
0.0847313
0.0847311
0.084731
0.0847308
0.0847307
0.0847306
0.0847304
0.0847303
0.0847303
0.0847302
0.0847301
0.0847301
0.08473
0.08473
0.08473
0.08473
0.08473
0.08473
0.08473
0.0847301
0.0847301
0.0847303
0.0847305
0.0847307
0.0847312
0.0847317
0.0847322
0.0847307
0.084729
0.0847284
0.0847307
0.0847357
0.0847352
0.0847304
0.0847227
0.0847079
0.0847228
0.0849293
0.0802744
0.062766
0.0627801
0.0628069
0.0628219
0.0628099
0.0627659
0.0626942
0.0626041
0.062507
0.0624139
0.062334
0.0622741
0.0622393
0.0622323
0.0622524
0.0622977
0.0623671
0.0624628
0.0625881
0.0627467
0.0629434
0.0631845
0.0634744
0.063721
0.0638738
0.0639328
0.06396
0.0639775
0.0639913
0.0640031
0.0640133
0.0640223
0.0640301
0.0640369
0.0640428
0.064048
0.0640524
0.0640562
0.0640595
0.0640624
0.0640648
0.0640669
0.0640687
0.0640702
0.0640715
0.0640726
0.0640736
0.0640744
0.0640751
0.0640757
0.0640762
0.0640767
0.0640771
0.0640774
0.0640776
0.0640777
0.0640777
0.0640777
0.0640776
0.0640776
0.0640776
0.0640776
0.0640775
0.0640775
0.0640775
0.0640775
0.0640775
0.0640775
0.0640775
0.0640775
0.0640774
0.0640774
0.0640774
0.0640774
0.0640774
0.0640774
0.0640775
0.0640775
0.0640775
0.0640775
0.0640775
0.0640776
0.0640776
0.0640777
0.0640776
0.0640774
0.0640773
0.0640775
0.0640779
0.0640779
0.0640775
0.0640768
0.0640765
0.0640786
0.0640752
0.0634488
0.062946
0.0631181
0.0632497
0.0633116
0.0633128
0.0632366
0.0630962
0.0629113
0.0627025
0.0624881
0.0622821
0.0620939
0.0619288
0.0617887
0.0616734
0.0615816
0.0615108
0.0614587
0.0614232
0.0614027
0.0613961
0.0614034
0.061425
0.0614566
0.0614864
0.0614953
0.0614966
0.0614959
0.0614951
0.0614946
0.0614943
0.0614943
0.0614944
0.0614946
0.0614949
0.0614952
0.0614955
0.0614958
0.0614961
0.0614963
0.0614965
0.0614967
0.0614969
0.0614971
0.0614972
0.0614973
0.0614974
0.0614975
0.0614976
0.0614977
0.0614977
0.0614978
0.0614979
0.0614979
0.0614979
0.0614979
0.0614979
0.0614979
0.0614979
0.0614979
0.0614979
0.0614979
0.0614979
0.0614979
0.0614979
0.0614979
0.0614979
0.0614979
0.0614979
0.0614979
0.0614979
0.0614979
0.0614979
0.0614979
0.0614979
0.0614979
0.0614979
0.0614979
0.0614979
0.0614979
0.0614979
0.0614979
0.0614979
0.0614979
0.0614979
0.0614979
0.0614979
0.0614979
0.0614979
0.0614979
0.0614979
0.061498
0.0614992
0.0615004
0.0614974
0.0614256
0.0635084
0.0635803
0.0636253
0.0636295
0.0635891
0.0635069
0.0633904
0.0631745
0.06291
0.0626395
0.0623853
0.0621578
0.0619614
0.0617962
0.0616604
0.0615507
0.0614636
0.0613954
0.0613428
0.0613028
0.0612731
0.0612518
0.0612374
0.0612289
0.0612243
0.0612193
0.0612148
0.0612112
0.0612083
0.0612061
0.0612045
0.0612034
0.0612025
0.0612019
0.0612015
0.0612012
0.061201
0.0612008
0.0612007
0.0612007
0.0612006
0.0612006
0.0612006
0.0612005
0.0612005
0.0612005
0.0612005
0.0612005
0.0612005
0.0612005
0.0612005
0.0612005
0.0612005
0.0612005
0.0612006
0.0612006
0.0612006
0.0612006
0.0612006
0.0612006
0.0612006
0.0612006
0.0612006
0.0612006
0.0612005
0.0612005
0.0612005
0.0612005
0.0612005
0.0612005
0.0612005
0.0612005
0.0612005
0.0612005
0.0612005
0.0612005
0.0612005
0.0612005
0.0612005
0.0612005
0.0612005
0.0612005
0.0612005
0.0612005
0.0612005
0.0612005
0.0612005
0.0612005
0.0612006
0.0612006
0.0612006
0.0612007
0.0612022
0.0612033
0.0612028
0.0611978
0.0640381
0.0640779
0.0640815
0.0640363
0.0639421
0.0638073
0.0636429
0.0634596
0.0631767
0.0628518
0.0625417
0.0622686
0.0620377
0.0618475
0.0616938
0.0615716
0.0614757
0.0614011
0.0613437
0.0612999
0.0612667
0.0612417
0.061223
0.0612091
0.061199
0.0611916
0.061186
0.0611817
0.0611786
0.0611762
0.0611745
0.0611732
0.0611722
0.0611715
0.061171
0.0611706
0.0611704
0.0611702
0.06117
0.0611699
0.0611698
0.0611698
0.0611697
0.0611697
0.0611697
0.0611697
0.0611697
0.0611697
0.0611696
0.0611696
0.0611696
0.0611696
0.0611696
0.0611696
0.0611696
0.0611696
0.0611696
0.0611696
0.0611696
0.0611696
0.0611696
0.0611696
0.0611696
0.0611696
0.0611696
0.0611696
0.0611696
0.0611696
0.0611696
0.0611696
0.0611696
0.0611696
0.0611696
0.0611696
0.0611696
0.0611696
0.0611696
0.0611696
0.0611696
0.0611696
0.0611696
0.0611696
0.0611696
0.0611696
0.0611696
0.0611696
0.0611696
0.0611696
0.0611696
0.0611696
0.0611696
0.0611698
0.0611713
0.0611724
0.0611723
0.0611741
0.0646922
0.0647103
0.0646721
0.0645652
0.0643982
0.0641896
0.0639567
0.0637134
0.0634644
0.0631086
0.062738
0.0624087
0.0621344
0.0619129
0.0617375
0.0616005
0.0614945
0.0614133
0.0613514
0.0613046
0.0612694
0.0612429
0.0612232
0.0612083
0.0611973
0.0611893
0.0611834
0.061179
0.0611758
0.0611734
0.0611716
0.0611703
0.0611693
0.0611686
0.0611681
0.0611677
0.0611674
0.0611672
0.0611671
0.061167
0.0611669
0.0611668
0.0611668
0.0611667
0.0611667
0.0611667
0.0611667
0.0611667
0.0611667
0.0611667
0.0611667
0.0611667
0.0611667
0.0611667
0.0611667
0.0611667
0.0611667
0.0611667
0.0611667
0.0611667
0.0611667
0.0611667
0.0611667
0.0611667
0.0611667
0.0611667
0.0611667
0.0611667
0.0611667
0.0611667
0.0611667
0.0611667
0.0611667
0.0611667
0.0611667
0.0611667
0.0611667
0.0611667
0.0611667
0.0611667
0.0611667
0.0611667
0.0611667
0.0611667
0.0611667
0.0611667
0.0611667
0.0611667
0.0611667
0.0611667
0.0611667
0.0611668
0.0611684
0.0611694
0.0611693
0.0611718
0.065527
0.0655394
0.0654543
0.0652616
0.0649898
0.0646767
0.0643498
0.0640252
0.0637146
0.0633791
0.0629682
0.062578
0.0622514
0.0619915
0.0617895
0.0616345
0.0615166
0.0614275
0.0613606
0.0613105
0.0612731
0.0612453
0.0612246
0.0612092
0.0611977
0.0611894
0.0611834
0.0611789
0.0611756
0.0611731
0.0611713
0.06117
0.061169
0.0611683
0.0611678
0.0611674
0.0611671
0.0611669
0.0611668
0.0611667
0.0611666
0.0611665
0.0611665
0.0611665
0.0611664
0.0611664
0.0611664
0.0611664
0.0611664
0.0611664
0.0611664
0.0611664
0.0611664
0.0611664
0.0611664
0.0611664
0.0611664
0.0611664
0.0611664
0.0611664
0.0611664
0.0611664
0.0611664
0.0611664
0.0611664
0.0611664
0.0611664
0.0611664
0.0611664
0.0611664
0.0611664
0.0611664
0.0611664
0.0611664
0.0611664
0.0611664
0.0611664
0.0611664
0.0611664
0.0611664
0.0611664
0.0611664
0.0611664
0.0611664
0.0611664
0.0611664
0.0611664
0.0611664
0.0611664
0.0611664
0.0611664
0.0611665
0.0611681
0.0611691
0.061169
0.0611715
0.0666169
0.0666611
0.066521
0.0661975
0.0657653
0.0652992
0.064841
0.0644076
0.0640071
0.0636458
0.063222
0.0627758
0.0623896
0.0620838
0.0618498
0.0616735
0.0615417
0.0614436
0.0613708
0.061317
0.0612772
0.0612479
0.0612263
0.0612102
0.0611984
0.0611898
0.0611836
0.061179
0.0611757
0.0611732
0.0611714
0.06117
0.061169
0.0611683
0.0611678
0.0611674
0.0611671
0.0611669
0.0611668
0.0611667
0.0611666
0.0611665
0.0611665
0.0611664
0.0611664
0.0611664
0.0611664
0.0611664
0.0611664
0.0611664
0.0611664
0.0611664
0.0611664
0.0611664
0.0611664
0.0611664
0.0611664
0.0611664
0.0611664
0.0611664
0.0611664
0.0611664
0.0611664
0.0611664
0.0611664
0.0611664
0.0611664
0.0611664
0.0611664
0.0611664
0.0611664
0.0611664
0.0611664
0.0611664
0.0611664
0.0611664
0.0611664
0.0611664
0.0611664
0.0611664
0.0611664
0.0611664
0.0611664
0.0611664
0.0611664
0.0611664
0.0611664
0.0611664
0.0611664
0.0611664
0.0611664
0.0611665
0.0611681
0.0611691
0.0611689
0.0611715
0.0680893
0.0682478
0.0680318
0.0674886
0.066797
0.0660997
0.065455
0.0648738
0.0643575
0.063907
0.063497
0.0630025
0.06255
0.0621902
0.0619186
0.0617175
0.0615696
0.0614612
0.061382
0.061324
0.0612816
0.0612507
0.061228
0.0612113
0.061199
0.0611902
0.0611839
0.0611792
0.0611758
0.0611732
0.0611714
0.06117
0.061169
0.0611683
0.0611678
0.0611674
0.0611671
0.0611669
0.0611668
0.0611667
0.0611666
0.0611665
0.0611665
0.0611664
0.0611664
0.0611664
0.0611664
0.0611664
0.0611664
0.0611664
0.0611664
0.0611664
0.0611664
0.0611664
0.0611664
0.0611664
0.0611664
0.0611664
0.0611664
0.0611664
0.0611664
0.0611664
0.0611664
0.0611664
0.0611664
0.0611664
0.0611664
0.0611664
0.0611664
0.0611664
0.0611664
0.0611664
0.0611664
0.0611664
0.0611664
0.0611664
0.0611664
0.0611664
0.0611664
0.0611664
0.0611664
0.0611664
0.0611664
0.0611664
0.0611664
0.0611664
0.0611664
0.0611664
0.0611664
0.0611664
0.0611664
0.0611665
0.0611682
0.0611691
0.0611689
0.0611715
0.0702117
0.0706636
0.0703016
0.0693397
0.0681955
0.0671358
0.0662228
0.0654392
0.0647708
0.064207
0.0637369
0.0632316
0.0627252
0.0623087
0.0619949
0.0617657
0.0615999
0.0614802
0.0613938
0.0613314
0.0612862
0.0612535
0.0612298
0.0612124
0.0611997
0.0611907
0.0611841
0.0611794
0.0611759
0.0611733
0.0611714
0.0611701
0.0611691
0.0611683
0.0611678
0.0611674
0.0611671
0.0611669
0.0611668
0.0611667
0.0611666
0.0611665
0.0611665
0.0611664
0.0611664
0.0611664
0.0611664
0.0611664
0.0611664
0.0611664
0.0611664
0.0611664
0.0611664
0.0611664
0.0611664
0.0611664
0.0611664
0.0611664
0.0611664
0.0611664
0.0611664
0.0611664
0.0611664
0.0611664
0.0611664
0.0611664
0.0611664
0.0611664
0.0611664
0.0611664
0.0611664
0.0611664
0.0611664
0.0611664
0.0611664
0.0611664
0.0611664
0.0611664
0.0611664
0.0611664
0.0611664
0.0611664
0.0611664
0.0611664
0.0611664
0.0611664
0.0611664
0.0611664
0.0611664
0.0611664
0.0611664
0.0611665
0.0611682
0.0611691
0.0611689
0.0611715
0.0737205
0.0746454
0.0739124
0.0721307
0.0701582
0.0685011
0.0671868
0.06612
0.0652514
0.064548
0.0639789
0.0634746
0.062917
0.0624386
0.0620778
0.0618175
0.0616319
0.0615
0.061406
0.0613389
0.0612909
0.0612564
0.0612316
0.0612135
0.0612004
0.0611911
0.0611844
0.0611795
0.061176
0.0611734
0.0611715
0.0611701
0.0611691
0.0611683
0.0611678
0.0611674
0.0611671
0.0611669
0.0611668
0.0611667
0.0611666
0.0611665
0.0611665
0.0611664
0.0611664
0.0611664
0.0611664
0.0611664
0.0611664
0.0611664
0.0611664
0.0611664
0.0611664
0.0611664
0.0611664
0.0611664
0.0611664
0.0611664
0.0611664
0.0611664
0.0611664
0.0611664
0.0611664
0.0611664
0.0611664
0.0611664
0.0611664
0.0611664
0.0611664
0.0611664
0.0611664
0.0611664
0.0611664
0.0611664
0.0611664
0.0611664
0.0611664
0.0611664
0.0611664
0.0611664
0.0611664
0.0611664
0.0611664
0.0611664
0.0611664
0.0611664
0.0611664
0.0611664
0.0611664
0.0611664
0.0611664
0.0611665
0.0611682
0.0611691
0.0611689
0.0611715
0.0841288
0.0843747
0.081045
0.0766881
0.072983
0.0703306
0.0684048
0.0669336
0.0658014
0.0649257
0.064239
0.0636973
0.0631096
0.062574
0.0621645
0.0618712
0.0616649
0.0615201
0.0614184
0.0613465
0.0612955
0.0612592
0.0612333
0.0612146
0.0612011
0.0611915
0.0611847
0.0611797
0.0611761
0.0611734
0.0611715
0.0611701
0.0611691
0.0611683
0.0611678
0.0611674
0.0611671
0.0611669
0.0611668
0.0611667
0.0611666
0.0611665
0.0611665
0.0611664
0.0611664
0.0611664
0.0611664
0.0611664
0.0611664
0.0611664
0.0611664
0.0611664
0.0611664
0.0611664
0.0611664
0.0611664
0.0611664
0.0611664
0.0611664
0.0611664
0.0611664
0.0611664
0.0611664
0.0611664
0.0611664
0.0611664
0.0611664
0.0611664
0.0611664
0.0611664
0.0611664
0.0611664
0.0611664
0.0611664
0.0611664
0.0611664
0.0611664
0.0611664
0.0611664
0.0611664
0.0611664
0.0611664
0.0611664
0.0611664
0.0611664
0.0611664
0.0611664
0.0611664
0.0611664
0.0611664
0.0611664
0.0611665
0.0611682
0.0611691
0.0611689
0.0611715
0.0990158
0.110316
0.100729
0.0864574
0.0775852
0.0727963
0.0698796
0.0678587
0.0664028
0.0653267
0.0645107
0.0638847
0.0632857
0.0627064
0.062251
0.0619247
0.0616974
0.0615399
0.0614303
0.0613537
0.0612999
0.0612619
0.0612349
0.0612156
0.0612017
0.0611919
0.0611849
0.0611799
0.0611762
0.0611735
0.0611715
0.0611701
0.0611691
0.0611683
0.0611678
0.0611674
0.0611671
0.0611669
0.0611668
0.0611667
0.0611666
0.0611665
0.0611665
0.0611664
0.0611664
0.0611664
0.0611664
0.0611664
0.0611664
0.0611664
0.0611664
0.0611664
0.0611664
0.0611664
0.0611664
0.0611664
0.0611664
0.0611664
0.0611664
0.0611664
0.0611664
0.0611664
0.0611664
0.0611664
0.0611664
0.0611664
0.0611664
0.0611664
0.0611664
0.0611664
0.0611664
0.0611664
0.0611664
0.0611664
0.0611664
0.0611664
0.0611664
0.0611664
0.0611664
0.0611664
0.0611664
0.0611664
0.0611664
0.0611664
0.0611664
0.0611664
0.0611664
0.0611664
0.0611664
0.0611664
0.0611664
0.0611665
0.0611682
0.0611691
0.0611689
0.0611715
2.77158
0.952876
0.249962
0.117486
0.0879659
0.0769691
0.0718424
0.0689216
0.06704
0.0657314
0.0647771
0.0640625
0.0634561
0.0628349
0.0623343
0.0619757
0.0617282
0.0615583
0.0614414
0.0613604
0.061304
0.0612643
0.0612364
0.0612164
0.0612023
0.0611923
0.0611852
0.06118
0.0611762
0.0611735
0.0611716
0.0611701
0.0611691
0.0611684
0.0611678
0.0611674
0.0611671
0.0611669
0.0611668
0.0611667
0.0611666
0.0611665
0.0611665
0.0611664
0.0611664
0.0611664
0.0611664
0.0611664
0.0611664
0.0611664
0.0611664
0.0611664
0.0611664
0.0611664
0.0611664
0.0611664
0.0611664
0.0611664
0.0611664
0.0611664
0.0611664
0.0611664
0.0611664
0.0611664
0.0611664
0.0611664
0.0611664
0.0611664
0.0611664
0.0611664
0.0611664
0.0611664
0.0611664
0.0611664
0.0611664
0.0611664
0.0611664
0.0611664
0.0611664
0.0611664
0.0611664
0.0611664
0.0611664
0.0611664
0.0611664
0.0611664
0.0611664
0.0611664
0.0611664
0.0611664
0.0611664
0.0611665
0.0611682
0.0611691
0.0611689
0.0611715
4.42688
1.98105
0.32558
0.0639748
0.0742156
0.0761905
0.0726388
0.0696686
0.0675652
0.0660811
0.0650104
0.0642186
0.0636039
0.0629497
0.0624089
0.0620213
0.0617554
0.0615746
0.0614511
0.0613662
0.0613074
0.0612664
0.0612376
0.0612172
0.0612027
0.0611926
0.0611853
0.0611801
0.0611763
0.0611736
0.0611716
0.0611701
0.0611691
0.0611684
0.0611678
0.0611674
0.0611671
0.0611669
0.0611668
0.0611667
0.0611666
0.0611665
0.0611665
0.0611664
0.0611664
0.0611664
0.0611664
0.0611664
0.0611664
0.0611664
0.0611664
0.0611664
0.0611664
0.0611664
0.0611664
0.0611664
0.0611664
0.0611664
0.0611664
0.0611664
0.0611664
0.0611664
0.0611664
0.0611664
0.0611664
0.0611664
0.0611664
0.0611664
0.0611664
0.0611664
0.0611664
0.0611664
0.0611664
0.0611664
0.0611664
0.0611664
0.0611664
0.0611664
0.0611664
0.0611664
0.0611664
0.0611664
0.0611664
0.0611664
0.0611664
0.0611664
0.0611664
0.0611664
0.0611664
0.0611664
0.0611664
0.0611665
0.0611682
0.0611691
0.0611689
0.0611715
4.36843
1.59783
0.181791
0.0408078
0.070766
0.0757179
0.0729307
0.0700715
0.0679007
0.0663276
0.0651845
0.064339
0.0637032
0.0630369
0.0624683
0.062058
0.0617775
0.0615877
0.0614589
0.0613709
0.0613102
0.061268
0.0612385
0.0612178
0.0612031
0.0611928
0.0611855
0.0611802
0.0611764
0.0611736
0.0611716
0.0611702
0.0611691
0.0611684
0.0611678
0.0611674
0.0611671
0.0611669
0.0611668
0.0611666
0.0611666
0.0611665
0.0611665
0.0611664
0.0611664
0.0611664
0.0611664
0.0611664
0.0611664
0.0611664
0.0611664
0.0611664
0.0611664
0.0611664
0.0611664
0.0611664
0.0611664
0.0611664
0.0611664
0.0611664
0.0611664
0.0611664
0.0611664
0.0611664
0.0611664
0.0611664
0.0611664
0.0611664
0.0611664
0.0611664
0.0611664
0.0611664
0.0611664
0.0611664
0.0611664
0.0611664
0.0611664
0.0611664
0.0611664
0.0611664
0.0611664
0.0611664
0.0611664
0.0611664
0.0611664
0.0611664
0.0611664
0.0611664
0.0611664
0.0611664
0.0611664
0.0611665
0.0611682
0.0611691
0.0611689
0.0611715
4.34489
1.14852
0.0788032
0.0330636
0.070306
0.0754693
0.0729647
0.0702223
0.0680657
0.066468
0.0652924
0.0644178
0.0637634
0.063093
0.0625087
0.0620835
0.0617929
0.0615969
0.0614644
0.0613742
0.0613121
0.0612692
0.0612392
0.0612182
0.0612033
0.061193
0.0611856
0.0611803
0.0611764
0.0611736
0.0611716
0.0611702
0.0611691
0.0611684
0.0611678
0.0611674
0.0611671
0.0611669
0.0611668
0.0611666
0.0611666
0.0611665
0.0611665
0.0611664
0.0611664
0.0611664
0.0611664
0.0611664
0.0611664
0.0611664
0.0611664
0.0611664
0.0611664
0.0611664
0.0611664
0.0611664
0.0611664
0.0611664
0.0611664
0.0611664
0.0611664
0.0611664
0.0611664
0.0611664
0.0611664
0.0611664
0.0611664
0.0611664
0.0611664
0.0611664
0.0611664
0.0611664
0.0611664
0.0611664
0.0611664
0.0611664
0.0611664
0.0611664
0.0611664
0.0611664
0.0611664
0.0611664
0.0611664
0.0611664
0.0611664
0.0611664
0.0611664
0.0611664
0.0611664
0.0611664
0.0611664
0.0611665
0.0611682
0.0611691
0.0611689
0.0611715
4.3392
1.00096
0.0421192
0.0309719
0.0702681
0.0753239
0.0729337
0.0702633
0.06813
0.06653
0.0653431
0.0644562
0.0637916
0.0631202
0.0625289
0.0620965
0.0618008
0.0616016
0.0614672
0.0613758
0.0613131
0.0612698
0.0612396
0.0612184
0.0612035
0.061193
0.0611857
0.0611803
0.0611764
0.0611736
0.0611716
0.0611702
0.0611691
0.0611684
0.0611678
0.0611674
0.0611671
0.0611669
0.0611668
0.0611666
0.0611666
0.0611665
0.0611665
0.0611664
0.0611664
0.0611664
0.0611664
0.0611664
0.0611664
0.0611664
0.0611664
0.0611664
0.0611664
0.0611664
0.0611664
0.0611664
0.0611664
0.0611664
0.0611664
0.0611664
0.0611664
0.0611664
0.0611664
0.0611664
0.0611664
0.0611664
0.0611664
0.0611664
0.0611664
0.0611664
0.0611664
0.0611664
0.0611664
0.0611664
0.0611664
0.0611664
0.0611664
0.0611664
0.0611664
0.0611664
0.0611664
0.0611664
0.0611664
0.0611664
0.0611664
0.0611664
0.0611664
0.0611664
0.0611664
0.0611664
0.0611664
0.0611665
0.0611682
0.0611691
0.0611689
0.0611715
4.33921
1.00098
0.0421229
0.0308933
0.0702227
0.0753101
0.0729296
0.0702618
0.0681293
0.0665297
0.065343
0.0644562
0.0637916
0.0631201
0.0625289
0.0620964
0.0618008
0.0616016
0.0614672
0.0613758
0.0613131
0.0612698
0.0612396
0.0612184
0.0612035
0.061193
0.0611857
0.0611803
0.0611764
0.0611736
0.0611716
0.0611702
0.0611691
0.0611684
0.0611678
0.0611674
0.0611671
0.0611669
0.0611668
0.0611666
0.0611666
0.0611665
0.0611665
0.0611664
0.0611664
0.0611664
0.0611664
0.0611664
0.0611664
0.0611664
0.0611664
0.0611664
0.0611664
0.0611664
0.0611664
0.0611664
0.0611664
0.0611664
0.0611664
0.0611664
0.0611664
0.0611664
0.0611664
0.0611664
0.0611664
0.0611664
0.0611664
0.0611664
0.0611664
0.0611664
0.0611664
0.0611664
0.0611664
0.0611664
0.0611664
0.0611664
0.0611664
0.0611664
0.0611664
0.0611664
0.0611664
0.0611664
0.0611664
0.0611664
0.0611664
0.0611664
0.0611664
0.0611664
0.0611664
0.0611664
0.0611664
0.0611665
0.0611682
0.0611691
0.0611689
0.0611715
4.3449
1.14857
0.0788105
0.0327648
0.0701294
0.0754139
0.0729484
0.0702169
0.0680638
0.0664672
0.065292
0.0644175
0.0637633
0.0630929
0.0625086
0.0620834
0.0617928
0.0615969
0.0614644
0.0613741
0.0613121
0.0612692
0.0612392
0.0612181
0.0612033
0.061193
0.0611856
0.0611803
0.0611764
0.0611736
0.0611716
0.0611702
0.0611691
0.0611684
0.0611678
0.0611674
0.0611671
0.0611669
0.0611668
0.0611666
0.0611666
0.0611665
0.0611665
0.0611664
0.0611664
0.0611664
0.0611664
0.0611664
0.0611664
0.0611664
0.0611664
0.0611664
0.0611664
0.0611664
0.0611664
0.0611664
0.0611664
0.0611664
0.0611664
0.0611664
0.0611664
0.0611664
0.0611664
0.0611664
0.0611664
0.0611664
0.0611664
0.0611664
0.0611664
0.0611664
0.0611664
0.0611664
0.0611664
0.0611664
0.0611664
0.0611664
0.0611664
0.0611664
0.0611664
0.0611664