/*--------------------------------*- C++ -*----------------------------------*\
| =========                 |                                                 |
| \\      /  F ield         | OpenFOAM: The Open Source CFD Toolbox           |
|  \\    /   O peration     | Version:  2206                                  |
|   \\  /    A nd           | Website:  www.openfoam.com                      |
|    \\/     M anipulation  |                                                 |
\*---------------------------------------------------------------------------*/
FoamFile
{
    version     2.0;
    format      ascii;
    arch        "LSB;label=32;scalar=64";
    class       surfaceScalarField;
    location    "0.76";
    object      phi;
}
// * * * * * * * * * * * * * * * * * * * * * * * * * * * * * * * * * * * * * //

dimensions      [0 3 -1 0 0 0 0];

oriented        oriented;

internalField   nonuniform List<scalar> 
9296
(
0.125013
-1.26112e-05
0.125121
-0.00010827
0.12537
-0.000249043
0.125793
-0.000423129
0.126452
-0.000658891
0.127412
-0.000960141
0.128692
-0.00127991
0.13025
-0.00155795
0.132005
-0.00175461
0.133866
-0.00186182
0.135761
-0.00189425
0.137633
-0.00187265
0.139445
-0.00181194
0.141163
-0.00171814
0.142754
-0.00159108
-0.00142868
0.144183
0.125099
-0.000111426
0.125355
-0.000364815
0.12577
-0.000663585
0.126372
-0.00102496
0.127197
-0.0014844
0.128279
-0.00204207
0.129634
-0.00263513
0.131237
-0.00316086
0.133022
-0.00353969
0.134912
-0.00375132
0.136838
-0.00382074
0.138751
-0.00378526
0.14061
-0.00367134
0.142381
-0.00348878
0.144026
-0.00323577
-0.00290715
0.145504
0.125092
-0.000203219
0.125344
-0.000616571
0.125753
-0.00107267
0.12635
-0.00162214
0.127183
-0.00231796
0.128293
-0.00315147
0.129682
-0.00402416
0.131312
-0.00479103
0.133118
-0.00534562
0.135029
-0.00566253
0.136986
-0.00577714
0.138941
-0.00574028
0.140856
-0.00558639
0.142693
-0.00532579
0.144409
-0.00495261
-0.00445717
0.145959
0.125091
-0.000293729
0.125341
-0.000867495
0.125749
-0.00148065
0.126342
-0.00221458
0.12717
-0.00314642
0.12828
-0.00426069
0.129674
-0.0054183
0.131314
-0.00643109
0.133137
-0.00716851
0.135077
-0.00760319
0.137081
-0.00778109
0.139105
-0.00776431
0.141111
-0.00759174
0.143055
-0.00727043
0.144889
-0.00678673
-0.00612329
0.146556
0.125086
-0.000379478
0.125333
-0.00111436
0.125738
-0.00188579
0.126328
-0.00280529
0.127154
-0.00397237
0.128258
-0.00536428
0.129646
-0.00680617
0.131285
-0.00807034
0.133121
-0.00900392
0.135095
-0.0095779
0.137162
-0.00984771
0.139281
-0.00988389
0.141415
-0.00972562
0.143516
-0.00937148
0.145524
-0.00879456
-0.007965
0.147366
0.125081
-0.000460426
0.125319
-0.00135258
0.125715
-0.00228112
0.126294
-0.00338473
0.127107
-0.00478511
0.128195
-0.00645281
0.129569
-0.00817962
0.1312
-0.00970185
0.133044
-0.0108481
0.135057
-0.0115901
0.137201
-0.0119918
0.139445
-0.0121286
0.141754
-0.012034
0.144073
-0.0116905
0.146328
-0.0110495
-0.010061
0.148424
0.125076
-0.000536431
0.125301
-0.00157755
0.125679
-0.00265873
0.126237
-0.00394273
0.127024
-0.00557207
0.128082
-0.0075112
0.129424
-0.00952151
0.131031
-0.0113087
0.132871
-0.0126886
0.134918
-0.0136367
0.137151
-0.0142253
0.139553
-0.0145303
0.14209
-0.0145716
0.144705
-0.0143049
0.147303
-0.0136472
-0.012514
0.149755
0.12507
-0.00060605
0.125277
-0.00178447
0.125627
-0.00300955
0.12615
-0.00446567
0.126893
-0.00631445
0.127897
-0.00851547
0.12918
-0.0108044
0.130735
-0.0128634
0.132549
-0.0145026
0.134618
-0.0157061
0.136947
-0.0165547
0.139537
-0.0171202
0.142366
-0.0174007
0.145374
-0.0173124
0.148444
-0.0167174
-0.0154707
0.151401
0.125061
-0.000667155
0.125243
-0.00196662
0.125555
-0.00332132
0.126024
-0.00493513
0.126697
-0.00698663
0.127614
-0.00943259
0.128799
-0.0119897
0.130261
-0.0143256
0.132013
-0.016254
0.134081
-0.017774
0.136502
-0.0189762
0.139308
-0.019926
0.142496
-0.0205893
0.146013
-0.0208287
0.149723
-0.0204273
-0.0191438
0.153396
0.12505
-0.000716824
0.125198
-0.00211508
0.125455
-0.00357852
0.125848
-0.00532765
0.126417
-0.00755548
0.127203
-0.010219
0.128239
-0.0130251
0.129552
-0.015639
0.131186
-0.0178881
0.133207
-0.0197949
0.135697
-0.021466
0.138735
-0.0229645
0.14236
-0.0242145
0.146542
-0.0250105
0.151116
-0.0250008
-0.023806
0.155778
0.125035
-0.000751484
0.125139
-0.00221917
0.125323
-0.00376252
0.12561
-0.00561482
0.126035
-0.00798022
0.126636
-0.0108202
0.127455
-0.013844
0.128544
-0.0167277
0.129979
-0.0193239
0.131873
-0.0216881
0.134362
-0.0239559
0.137603
-0.0262051
0.141717
-0.0283291
0.146787
-0.0300796
0.152611
-0.0308251
-0.0299375
0.158742
0.125016
-0.000767169
0.125064
-0.002267
0.125153
-0.00385248
0.125303
-0.0057644
0.125537
-0.00821394
0.125889
-0.0111721
0.126409
-0.0143643
0.127174
-0.0174925
0.128296
-0.0204466
0.129935
-0.0233271
0.132298
-0.0263182
0.135624
-0.0295313
0.14016
-0.0328656
0.146239
-0.0361584
0.153674
-0.0382599
-0.0386544
0.162391
0.124993
-0.000759873
0.124972
-0.00224652
0.124947
-0.00382703
0.124925
-0.00574298
0.124919
-0.00820713
0.124951
-0.0112043
0.125076
-0.0144895
0.125389
-0.0178051
0.126035
-0.0210931
0.127229
-0.0245209
0.129269
-0.0283579
0.132532
-0.0327946
0.137435
-0.0377683
0.144578
-0.0433023
0.153599
-0.0472801
-0.0526562
0.1676
0.124966
-0.000726022
0.124867
-0.00214706
0.124707
-0.00366717
0.124484
-0.00552034
0.124191
-0.0079138
0.123834
-0.0108479
0.123461
-0.014116
0.123168
-0.0175116
0.123112
-0.0210375
0.123545
-0.0249542
0.124854
-0.0296671
0.127689
-0.0356295
0.132876
-0.0429546
0.141762
-0.0521888
0.153946
-0.0594638
-0.0769156
0.178205
0.124937
-0.000663008
0.124751
-0.00196126
0.124444
-0.00335997
0.123999
-0.00507534
0.123385
-0.00730011
0.122586
-0.0100481
0.121623
-0.013154
0.120574
-0.0164625
0.119566
-0.020029
0.118806
-0.0241944
0.118624
-0.0294852
0.11975
-0.0367552
0.12339
-0.0465947
0.132846
-0.0616443
0.151008
-0.0776262
-0.113524
0.187616
0.124907
-0.000569775
0.124633
-0.00168725
0.124175
-0.00290263
0.123502
-0.00440213
0.122556
-0.00635386
0.121288
-0.0087802
0.119689
-0.0115544
0.117791
-0.014565
0.115658
-0.017896
0.113369
-0.0219052
0.111022
-0.0271383
0.108792
-0.034525
0.107058
-0.0448608
0.107517
-0.0621037
0.116305
-0.0864137
-0.154333
0.157114
0.124878
-0.000447715
0.124522
-0.00133138
0.123925
-0.00230606
0.123038
-0.00351468
0.121776
-0.00509157
0.120057
-0.00706126
0.117833
-0.00933092
0.115091
-0.0118226
0.111818
-0.0146228
0.107952
-0.0180399
0.103361
-0.0225473
0.0976535
-0.0288171
0.0902699
-0.0374773
0.0782443
-0.0500781
0.0578177
-0.0659871
-0.0965151
0.124855
-0.00030277
0.124436
-0.000912489
0.123727
-0.00159732
0.122661
-0.00244812
0.121129
-0.00355967
0.11902
-0.00495252
0.116253
-0.006564
0.112774
-0.0083428
0.108507
-0.0103564
0.103292
-0.0128244
0.0968247
-0.0160803
0.0885281
-0.0205205
0.0776295
-0.0265787
0.0621999
-0.0346484
0.0412066
-0.0449938
-0.0553086
0.124848
-0.000150734
0.124396
-0.000460842
0.123614
-0.000814801
0.122421
-0.00125492
0.120692
-0.00183084
0.118293
-0.00255407
0.115121
-0.00339184
0.111096
-0.00431763
0.106107
-0.00536773
0.0999384
-0.00665558
0.092209
-0.00835083
0.082318
-0.0106296
0.069418
-0.0136787
0.052209
-0.0174394
0.0292283
-0.0220131
-0.0260802
0.124849
1.00514e-07
0.124388
1.71968e-07
0.123573
2.04246e-07
0.122318
3.15186e-09
0.120488
-5.14709e-07
0.117935
-1.09779e-06
0.114544
-1.29365e-06
0.110228
-8.59097e-07
0.10486
3.59142e-08
0.0982033
9.95945e-07
0.0898507
1.72081e-06
0.079219
2.15246e-06
0.0655379
2.38299e-06
0.048096
2.54801e-06
0.0260801
2.76652e-06
-1.01209e-07
0.124849
0.000150944
0.124388
0.000461193
0.123573
0.000815199
0.122318
0.00125489
0.120488
0.00182977
0.117935
0.00255183
0.114545
0.00338923
0.110228
0.0043159
0.10486
0.00536779
0.0982035
0.00665755
0.0898509
0.00835425
0.0792192
0.0106338
0.0655382
0.0136834
0.0480963
0.0174445
0.0260804
0.0220187
0.0260803
0.124848
0.000303003
0.124396
0.000912861
0.123614
0.00159771
0.122421
0.00244803
0.120692
0.00355851
0.118294
0.00495021
0.115121
0.00656133
0.111096
0.00834101
0.106108
0.0103564
0.0999389
0.0128263
0.0922095
0.0160836
0.0823187
0.0205247
0.0694187
0.0265834
0.0522098
0.0346534
0.0292291
0.0449994
0.0553094
0.124855
0.000447961
0.124436
0.00133177
0.123727
0.00230645
0.122661
0.00351457
0.121129
0.00509035
0.11902
0.00705887
0.116254
0.00932815
0.112774
0.0118206
0.108508
0.0146226
0.103292
0.0180416
0.0968257
0.0225504
0.0885292
0.0288211
0.0776308
0.0374818
0.0622013
0.0500829
0.0412079
0.0659928
0.0965173
0.124878
0.000570027
0.124522
0.00168766
0.123925
0.00290304
0.123038
0.00440202
0.121776
0.00635261
0.120057
0.00877774
0.117834
0.0115515
0.115091
0.0145629
0.111818
0.0178956
0.107953
0.0219066
0.103363
0.0271411
0.097655
0.0345287
0.0902717
0.0448651
0.0782464
0.0621082
0.0578199
0.0864193
0.154337
0.124907
0.000663259
0.124633
0.00196167
0.124175
0.00336039
0.123502
0.00507524
0.122556
0.00729884
0.121288
0.0100456
0.119689
0.013151
0.117791
0.0164602
0.115659
0.0200283
0.11337
0.0241955
0.111023
0.0294877
0.108793
0.0367586
0.10706
0.0465985
0.10752
0.0616483
0.116308
0.0776307
0.113527
0.157118
0.124937
0.000726267
0.124751
0.00214747
0.124444
0.00366759
0.123999
0.00552023
0.123385
0.00791253
0.122586
0.0108453
0.121624
0.0141129
0.120575
0.0175091
0.119567
0.0210365
0.118807
0.0249549
0.118626
0.0296691
0.119752
0.0356324
0.123392
0.0429579
0.132849
0.0521922
0.151012
0.0594674
0.0769187
0.18762
0.124966
0.000760109
0.124867
0.00224691
0.124707
0.00382745
0.124484
0.00574288
0.124191
0.00820586
0.123834
0.0112017
0.123461
0.0144863
0.123168
0.0178024
0.123112
0.0210918
0.123546
0.0245213
0.124856
0.0283596
0.127691
0.032797
0.132878
0.0377712
0.141765
0.0433051
0.153949
0.0472829
0.0526586
0.178209
0.124993
0.000767393
0.124972
0.00226737
0.124947
0.00385288
0.124925
0.0057643
0.124919
0.00821268
0.124951
0.0111695
0.125076
0.0143611
0.125389
0.0174897
0.126035
0.0204451
0.12723
0.0233271
0.12927
0.0263195
0.132533
0.0295334
0.137436
0.0328681
0.144581
0.0361609
0.153601
0.0382622
0.0386562
0.167604
0.125016
0.000751694
0.125064
0.00221952
0.125154
0.0037629
0.125303
0.00561471
0.125537
0.00797898
0.125889
0.0108177
0.126409
0.0138409
0.127174
0.0167249
0.128297
0.0193222
0.129936
0.0216879
0.132299
0.0239569
0.135625
0.0262069
0.140162
0.0283313
0.146241
0.0300818
0.153676
0.030827
0.0299391
0.162393
0.125035
0.000717018
0.125139
0.00211541
0.125323
0.00357886
0.12561
0.00532752
0.126035
0.00755427
0.126636
0.0102166
0.127455
0.013022
0.128543
0.0156361
0.129979
0.0178863
0.131873
0.0197945
0.134363
0.0214668
0.137604
0.0229661
0.141718
0.0242165
0.146788
0.0250125
0.152612
0.0250026
0.0238075
0.158744
0.12505
0.000667331
0.125198
0.00196692
0.125455
0.00332163
0.125848
0.00493497
0.126417
0.00698545
0.127203
0.00943023
0.128238
0.0119866
0.129552
0.0143228
0.131186
0.0162522
0.133207
0.0177734
0.135697
0.0189769
0.138736
0.0199274
0.142361
0.0205911
0.146543
0.0208305
0.151116
0.020429
0.0191452
0.155779
0.125061
0.000606207
0.125243
0.00178474
0.125555
0.00300981
0.126025
0.0044655
0.126697
0.00631331
0.127614
0.00851321
0.128799
0.0108015
0.130261
0.0128607
0.132012
0.0145008
0.13408
0.0157055
0.136502
0.0165552
0.139308
0.0171215
0.142497
0.0174024
0.146013
0.0173141
0.149723
0.0167191
0.0154722
0.153396
0.12507
0.000536568
0.125277
0.00157778
0.125627
0.00265895
0.12615
0.00394254
0.126893
0.00557099
0.127897
0.00750909
0.12918
0.00951879
0.130734
0.0113061
0.132548
0.0126868
0.134618
0.0136361
0.136947
0.0142258
0.139537
0.0145315
0.142366
0.0145732
0.145374
0.0143066
0.148444
0.0136488
0.0125154
0.151401
0.125076
0.000460541
0.125301
0.00135278
0.125679
0.00228128
0.126237
0.00338453
0.127024
0.0047841
0.128082
0.00645088
0.129423
0.00817714
0.13103
0.00969952
0.13287
0.0108466
0.134917
0.0115895
0.13715
0.0119922
0.139552
0.0121298
0.14209
0.0120355
0.144704
0.0116921
0.147302
0.0110511
0.0100624
0.149755
0.125081
0.000379572
0.125319
0.00111452
0.125715
0.00188591
0.126294
0.00280509
0.127107
0.00397147
0.128195
0.00536257
0.129568
0.00680398
0.131199
0.00806829
0.133043
0.00900255
0.135055
0.00957746
0.1372
0.00984814
0.139444
0.00988493
0.141753
0.00972699
0.144072
0.00937295
0.146327
0.00879599
0.00796632
0.148423
0.125086
0.0002938
0.125333
0.00086761
0.125738
0.00148074
0.126329
0.00221441
0.127154
0.00314567
0.128258
0.00425926
0.129645
0.00541647
0.131284
0.00642937
0.133119
0.00716738
0.135094
0.00760286
0.13716
0.00778151
0.13928
0.00776525
0.141414
0.00759298
0.143515
0.00727176
0.145523
0.00678805
0.00612453
0.147365
0.125091
0.000203268
0.125341
0.000616649
0.12575
0.00107273
0.126342
0.00162201
0.12717
0.00231739
0.128279
0.00315039
0.129673
0.00402274
0.131312
0.0047897
0.133135
0.00534475
0.135076
0.0056623
0.13708
0.00577752
0.139104
0.00574111
0.141109
0.00558747
0.143054
0.00532696
0.144888
0.00495378
0.00445831
0.146555
0.125092
0.000111457
0.125344
0.000364864
0.125753
0.000663631
0.12635
0.00102489
0.127183
0.00148406
0.128292
0.00204136
0.129681
0.00263417
0.131311
0.00315994
0.133116
0.00353909
0.135027
0.00375118
0.136984
0.00382107
0.138939
0.00378592
0.140854
0.00367221
0.142691
0.00348974
0.144408
0.00323675
0.00290812
0.145959
0.125099
1.26299e-05
0.125355
0.000108304
0.12577
0.000249095
0.126372
0.000423134
0.127197
0.000658745
0.128279
0.000959797
0.129633
0.00127944
0.131236
0.00155749
0.133021
0.00175431
0.13491
0.00186177
0.136837
0.00189445
0.138749
0.00187306
0.140609
0.0018125
0.14238
0.00171876
0.144025
0.00159174
0.00142933
0.145504
0.125013
0.125121
0.12537
0.125793
0.126452
0.127412
0.128691
0.130249
0.132003
0.133865
0.135759
0.137632
0.139445
0.141163
0.142755
0.144185
0.145413
-0.00122961
0.14641
-0.000996998
0.147139
-0.000729346
0.147569
-0.000429512
0.147664
-9.51865e-05
0.147339
0.000324507
0.146601
0.000737794
0.00109576
0.145506
0.146774
-0.00249936
0.147795
-0.00201807
0.148548
-0.00148254
0.149032
-0.000913283
0.149269
-0.000332367
0.149348
0.000246057
0.149284
0.000801315
0.00132443
0.149055
0.147296
-0.00383564
0.148374
-0.00309586
0.149154
-0.00226307
0.149612
-0.00137129
0.149744
-0.000463953
0.149576
0.000413674
0.149147
0.00123075
0.00197217
0.148499
0.147993
-0.00527308
0.149145
-0.00424804
0.149965
-0.00308326
0.150428
-0.00183402
0.150533
-0.000568435
0.150299
0.000647684
0.14976
0.0017695
0.00277266
0.148959
0.148963
-0.00686974
0.15024
-0.00552582
0.151143
-0.00398551
0.15164
-0.00233141
0.151731
-0.000659209
0.151439
0.000939479
0.150802
0.00240644
0.0037075
0.149867
0.150254
-0.00870012
0.151716
-0.00698766
0.15273
-0.00499965
0.153259
-0.00285979
0.153306
-0.000706766
0.152912
0.00133335
0.152131
0.003188
0.00481659
0.151022
0.151915
-0.0108595
0.153633
-0.00870537
0.154793
-0.00616016
0.155346
-0.00341276
0.155311
-0.000672119
0.154762
0.00188246
0.153778
0.00417217
0.00615682
0.152438
0.154024
-0.0134825
0.156088
-0.010769
0.157427
-0.00749932
0.157991
-0.00397656
0.157823
-0.0005042
0.157048
0.00265673
0.155784
0.00543609
0.00779952
0.154142
0.156704
-0.0167909
0.159261
-0.013326
0.160801
-0.00903957
0.161301
-0.0044765
0.160912
-0.000114409
0.159811
0.00375768
0.158182
0.00706517
0.0098201
0.156161
0.160063
-0.0210756
0.163315
-0.0165786
0.16512
-0.0108443
0.165491
-0.00484741
0.1647
0.00067619
0.163084
0.00537403
0.16095
0.00919922
0.0122868
0.158483
0.164364
-0.0266974
0.168385
-0.020599
0.170362
-0.0128221
0.170508
-0.00499256
0.169204
0.0019794
0.166914
0.00766478
0.164117
0.0119953
0.0152993
0.161105
0.170564
-0.0348705
0.175941
-0.0259758
0.178063
-0.0149444
0.177316
-0.00424506
0.174716
0.00457903
0.171171
0.0112101
0.167552
0.0156138
0.0187793
0.164072
0.181894
-0.049164
0.190781
-0.0348634
0.194304
-0.0184666
0.19214
-0.00208143
0.186356
0.0103629
0.179179
0.0183878
0.172773
0.0220194
0.0238137
0.167738
0.200792
-0.0717505
0.211681
-0.0457524
0.213763
-0.0205489
0.211316
0.000365608
0.203
0.018679
0.193706
0.0276818
0.184882
0.0308437
0.0311602
0.177535
0.194694
-0.078828
0.190928
-0.0419866
0.184908
-0.0145295
0.178617
0.00665696
0.176011
0.0212852
0.175761
0.0279314
0.176785
0.0298195
0.0298299
0.178116
0.0782858
0.0362993
0.0217698
0.0284268
0.049712
0.0776434
0.107463
0.137293
0.0782889
0.0788295
0.036302
0.0419868
0.0217732
0.0145289
0.0284308
-0.00665765
0.0497162
-0.0212854
0.0776469
-0.0279308
0.107465
-0.0298184
-0.0298298
0.137295
0.194698
0.0717523
0.190931
0.0457529
0.184912
0.0205485
0.17862
-0.000365975
0.176013
-0.0186787
0.175764
-0.0276812
0.176789
-0.0308435
-0.0311615
0.178121
0.200796
0.0491657
0.211685
0.0348641
0.213767
0.0184666
0.21132
0.00208101
0.203004
-0.0103631
0.193711
-0.018388
0.184888
-0.0220204
-0.0238156
0.177542
0.181897
0.0348718
0.190785
0.0259764
0.194307
0.0149446
0.192143
0.00424486
0.18636
-0.00457934
0.179182
-0.0112106
0.172776
-0.0156147
-0.0187807
0.167741
0.170567
0.0266985
0.175943
0.0205997
0.178065
0.0128224
0.177318
0.00499261
0.174718
-0.00197954
0.171172
-0.00766512
0.167554
-0.011996
-0.0153002
0.164073
0.164366
0.0210767
0.168386
0.0165794
0.170364
0.0108448
0.170508
0.00484767
0.169205
-0.000676117
0.166914
-0.00537412
0.164118
-0.00919951
-0.0122873
0.161105
0.160063
0.0167921
0.163316
0.0133269
0.16512
0.00904021
0.165491
0.00447695
0.1647
0.000114684
0.163084
-0.00375755
0.160949
-0.00706521
-0.00982029
0.158483
0.156704
0.0134837
0.159261
0.01077
0.160801
0.00750008
0.161301
0.00397716
0.160911
0.000504698
0.15981
-0.00265642
0.158181
-0.0054359
-0.00779947
0.15616
0.154024
0.0108607
0.156087
0.00870641
0.157426
0.00616102
0.15799
0.00341348
0.157822
0.000672741
0.157048
-0.00188198
0.155784
-0.0041718
-0.00615656
0.154141
0.151914
0.00870134
0.153632
0.00698873
0.154793
0.00500059
0.155345
0.00286061
0.155311
0.000707479
0.154761
-0.00133273
0.153777
-0.00318748
-0.00481617
0.152437
0.150254
0.00687094
0.151715
0.0055269
0.152729
0.00398648
0.153258
0.00233229
0.153305
0.000660007
0.152911
-0.000938757
0.15213
-0.00240579
-0.00370693
0.15102
0.148962
0.00527424
0.15024
0.00424911
0.151142
0.00308426
0.151639
0.00183495
0.15173
0.000569293
0.151438
-0.000646886
0.150801
-0.00176876
-0.00277197
0.149866
0.147992
0.00383673
0.149144
0.00309689
0.149965
0.00226407
0.150427
0.00137225
0.150532
0.000464858
0.150298
-0.000412826
0.149759
-0.00122994
-0.00197141
0.148958
0.147295
0.00250031
0.148373
0.00201899
0.149154
0.00148344
0.149612
0.000914159
0.149743
0.000333231
0.149576
-0.000245219
0.149146
-0.000800464
-0.00132361
0.148498
0.146774
0.00123027
0.147795
0.000997667
0.148549
0.00073004
0.149033
0.000430247
0.14927
9.59457e-05
0.149348
-0.000323447
0.149284
-0.00073681
-0.00109495
0.149056
0.145415
0.146412
0.147143
0.147573
0.147669
0.147345
0.146608
0.145514
0.144134
0.00137174
0.142577
0.00155712
0.140921
0.00165543
0.139243
0.00167793
0.137602
0.00164147
0.13604
0.00156214
0.134586
0.0014534
0.133259
0.00132718
0.132065
0.00119453
0.131
0.00106439
0.130059
0.000941797
0.12923
0.000828973
0.128503
0.000726495
0.127869
0.000634241
0.127317
0.000551695
0.126839
0.00047815
0.126426
0.000412885
0.126071
0.000355234
0.125766
0.000304625
0.125506
0.000260585
0.125283
0.00022293
0.12509
0.000192625
0.124923
0.000167607
0.124778
0.000144919
0.124653
0.000125069
0.124544
0.000108532
0.124449
9.47004e-05
0.124367
8.2321e-05
0.124296
7.05908e-05
0.124237
5.94635e-05
0.124188
4.92759e-05
0.124147
4.03416e-05
0.124115
3.27862e-05
0.124088
2.65518e-05
0.124066
2.14677e-05
0.124049
1.73278e-05
0.124035
1.39437e-05
0.124024
1.11628e-05
0.124015
8.86685e-06
0.124008
6.96504e-06
0.124003
5.38644e-06
0.123999
4.07467e-06
0.123996
2.98429e-06
0.123994
2.0786e-06
0.123992
1.32862e-06
0.123992
7.13765e-07
0.123991
2.27603e-07
0.123992
-1.28244e-07
0.123992
-4.50066e-07
0.123993
-6.70944e-07
0.123994
-8.45061e-07
0.123995
-9.94001e-07
0.123996
-1.12716e-06
0.123997
-1.25329e-06
0.123998
-1.37943e-06
0.124
-1.50558e-06
0.124001
-1.62957e-06
0.124003
-1.74994e-06
0.124005
-1.86436e-06
0.124007
-1.97078e-06
0.124009
-2.06891e-06
0.124011
-2.1592e-06
0.124013
-2.24256e-06
0.124016
-2.3201e-06
0.124018
-2.39273e-06
0.124021
-2.46102e-06
0.124023
-2.52515e-06
0.124026
-2.58491e-06
0.124028
-2.63979e-06
0.124031
-2.68902e-06
0.124034
-2.73165e-06
0.124037
-2.76668e-06
0.124039
-2.79314e-06
0.124042
-2.81022e-06
0.124045
-2.81731e-06
0.124048
-2.81398e-06
0.124051
-2.79981e-06
0.124053
-2.77401e-06
0.124056
-2.73473e-06
0.124059
-2.67806e-06
0.124061
-2.59663e-06
0.124064
-2.47704e-06
0.124066
-2.29815e-06
0.124068
-2.02892e-06
0.12407
-1.62141e-06
0.124071
-9.65448e-07
0.124071
4.84326e-08
0.124069
1.30899e-06
0.124067
2.2676e-06
0.124064
2.86064e-06
0.124061
2.90604e-06
0.124059
2.38459e-06
0.124058
1.49093e-06
0.124058
-3.21503e-07
0.124062
-3.91471e-06
-1.2079e-05
0.148639
0.00178832
0.14802
0.00217572
0.147199
0.00247664
0.14619
0.00268744
0.14502
0.00281065
0.143729
0.00285395
0.142353
0.0028293
0.140929
0.0027508
0.139493
0.00263035
0.13808
0.00247759
0.136719
0.00230294
0.135431
0.00211656
0.134231
0.00192656
0.133126
0.00173905
0.13212
0.00155841
0.13121
0.00138761
0.130395
0.00122845
0.129668
0.00108184
0.129025
0.000948036
0.128458
0.000826789
0.127964
0.000717598
0.127535
0.000621084
0.127168
0.000535322
0.126854
0.000458457
0.126586
0.000393626
0.126354
0.000339969
0.126154
0.000294905
0.12598
0.000255955
0.12583
0.000221189
0.125699
0.000189631
0.125588
0.000161108
0.125492
0.000135731
0.125411
0.000113596
0.125343
9.46513e-05
0.125286
7.86743e-05
0.125238
6.53226e-05
0.125198
5.42097e-05
0.125164
4.49649e-05
0.125136
3.72629e-05
0.125112
3.08322e-05
0.125092
2.54514e-05
0.125075
2.0941e-05
0.125061
1.71553e-05
0.125049
1.39755e-05
0.125039
1.13038e-05
0.12503
9.05942e-06
0.125024
7.17357e-06
0.125018
5.58448e-06
0.125013
4.23816e-06
0.125009
3.12173e-06
0.125006
2.19349e-06
0.125004
1.41774e-06
0.125002
7.66855e-07
0.125001
2.19773e-07
0.124999
-2.49955e-07
0.124999
-6.52776e-07
0.124998
-9.98044e-07
0.124997
-1.30076e-06
0.124997
-1.56301e-06
0.124997
-1.79149e-06
0.124997
-1.99174e-06
0.124997
-2.16805e-06
0.124997
-2.32419e-06
0.124997
-2.46335e-06
0.124997
-2.5881e-06
0.124998
-2.70039e-06
0.124998
-2.80154e-06
0.124998
-2.89237e-06
0.124998
-2.97322e-06
0.124999
-3.04406e-06
0.124999
-3.10457e-06
0.125
-3.15428e-06
0.125
-3.19264e-06
0.125
-3.21912e-06
0.125001
-3.23322e-06
0.125001
-3.23441e-06
0.125002
-3.22191e-06
0.125002
-3.19427e-06
0.125003
-3.14882e-06
0.125003
-3.08072e-06
0.125003
-2.98219e-06
0.125004
-2.84166e-06
0.125004
-2.6439e-06
0.125004
-2.37214e-06
0.125005
-2.00953e-06
0.125005
-1.53851e-06
0.125006
-9.42309e-07
0.125008
-1.71862e-07
0.12501
4.96809e-07
0.125011
1.14843e-06
0.125013
1.50914e-06
0.125014
1.28273e-06
0.125015
2.13105e-07
0.125017
-2.05108e-06
0.12502
-6.67341e-06
-1.49621e-05
0.147663
0.00262457
0.146662
0.00317587
0.145523
0.00361628
0.14427
0.00393991
0.142935
0.00414627
0.141548
0.00424103
0.140141
0.0042357
0.138747
0.00414539
0.137391
0.00398601
0.136095
0.00377339
0.134875
0.00352341
0.13374
0.00325079
0.132699
0.00296819
0.131752
0.00268575
0.130899
0.00241109
0.130137
0.00214965
0.129461
0.00190494
0.128864
0.00167888
0.12834
0.0014722
0.127882
0.00128458
0.127485
0.00111431
0.127146
0.0009607
0.126855
0.000825771
0.126604
0.00070932
0.126387
0.000610969
0.126198
0.000528636
0.126034
0.000459259
0.125891
0.000399056
0.125767
0.000345277
0.12566
0.000296707
0.125568
0.000253115
0.125489
0.000214475
0.125422
0.000180721
0.125365
0.000151671
0.125316
0.000126981
0.125276
0.000106181
0.125241
8.87444e-05
0.125212
7.4153e-05
0.125187
6.19394e-05
0.125166
5.1703e-05
0.125149
4.311e-05
0.125134
3.58859e-05
0.125121
2.98055e-05
0.12511
2.46832e-05
0.125101
2.03659e-05
0.125094
1.67254e-05
0.125087
1.36541e-05
0.125082
1.10607e-05
0.125077
8.86904e-06
0.125073
7.02143e-06
0.12507
5.46579e-06
0.125067
4.15543e-06
0.125065
3.05112e-06
0.125063
2.11961e-06
0.125061
1.33137e-06
0.12506
6.63542e-07
0.125059
1.02608e-07
0.125058
-3.86619e-07
0.125057
-8.00378e-07
0.125057
-1.15579e-06
0.125056
-1.4622e-06
0.125056
-1.72737e-06
0.125055
-1.95794e-06
0.125055
-2.15938e-06
0.125055
-2.33605e-06
0.125055
-2.49146e-06
0.125054
-2.6283e-06
0.125054
-2.74853e-06
0.125054
-2.85355e-06
0.125054
-2.94423e-06
0.125054
-3.02107e-06
0.125054
-3.0843e-06
0.125054
-3.13393e-06
0.125054
-3.16988e-06
0.125054
-3.19192e-06
0.125054
-3.19968e-06
0.125054
-3.19236e-06
0.125054
-3.16853e-06
0.125054
-3.12557e-06
0.125054
-3.0592e-06
0.125054
-2.96301e-06
0.125054
-2.82824e-06
0.125054
-2.64438e-06
0.125054
-2.40057e-06
0.125054
-2.08804e-06
0.125054
-1.7077e-06
0.125054
-1.27194e-06
0.125055
-7.87292e-07
0.125056
-3.3604e-07
0.125057
4.56817e-08
0.125058
1.66319e-07
0.12506
-2.05419e-07
0.125061
-1.37447e-06
0.125063
-3.74637e-06
0.125064
-7.75583e-06
-1.37815e-05
0.14794
0.00364395
0.146742
0.00437346
0.145406
0.00495301
0.143968
0.00537711
0.14247
0.00564491
0.140948
0.00576228
0.139441
0.00574271
0.137981
0.00560598
0.136592
0.00537508
0.135292
0.00507356
0.134091
0.00472402
0.132995
0.00434682
0.132004
0.00395908
0.131116
0.00357418
0.130325
0.00320202
0.129625
0.00284947
0.129009
0.00252088
0.128469
0.00221851
0.127999
0.00194305
0.127589
0.00169405
0.127233
0.00147003
0.126925
0.00126933
0.126658
0.00109202
0.126432
0.000935987
0.126242
0.000800588
0.126081
0.000689621
0.125941
0.000599875
0.125817
0.000522429
0.12571
0.000452905
0.125616
0.000390267
0.125535
0.000334194
0.125465
0.000284498
0.125405
0.000240973
0.125353
0.000203321
0.125309
0.000171108
0.125271
0.000143781
0.125239
0.000120725
0.125212
0.000101325
0.125189
8.50154e-05
0.125169
7.12979e-05
0.125153
5.97502e-05
0.125139
5.00193e-05
0.125127
4.1812e-05
0.125116
3.48848e-05
0.125108
2.90351e-05
0.1251
2.40932e-05
0.125094
1.99169e-05
0.125089
1.63859e-05
0.125084
1.33995e-05
0.12508
1.08745e-05
0.125077
8.74077e-06
0.125074
6.93786e-06
0.125072
5.41435e-06
0.12507
4.12668e-06
0.125068
3.03769e-06
0.125067
2.1162e-06
0.125066
1.33595e-06
0.125065
6.71037e-07
0.125064
1.05893e-07
0.125063
-3.7638e-07
0.125062
-7.89174e-07
0.125062
-1.14363e-06
0.125061
-1.44896e-06
0.125061
-1.71279e-06
0.12506
-1.94142e-06
0.12506
-2.13992e-06
0.12506
-2.31237e-06
0.125059
-2.46195e-06
0.125059
-2.5911e-06
0.125059
-2.70165e-06
0.125059
-2.7949e-06
0.125058
-2.87179e-06
0.125058
-2.93294e-06
0.125058
-2.97874e-06
0.125058
-3.00935e-06
0.125058
-3.02467e-06
0.125057
-3.02419e-06
0.125057
-3.00677e-06
0.125057
-2.97037e-06
0.125057
-2.91175e-06
0.125057
-2.82631e-06
0.125057
-2.70818e-06
0.125057
-2.55097e-06
0.125057
-2.34927e-06
0.125057
-2.10148e-06
0.125057
-1.8144e-06
0.125057
-1.50295e-06
0.125057
-1.18583e-06
0.125058
-9.10911e-07
0.125059
-7.49088e-07
0.12506
-8.34258e-07
0.125061
-1.35172e-06
0.125062
-2.53407e-06
0.125063
-4.66178e-06
0.125063
-7.85868e-06
-1.21606e-05
0.148685
0.00482577
0.147308
0.0057511
0.145785
0.0064759
0.144167
0.00699524
0.142502
0.00730923
0.140838
0.00742644
0.139215
0.00736601
0.137665
0.00715589
0.136212
0.00682808
0.134871
0.00641459
0.13365
0.00594542
0.132549
0.00544706
0.131567
0.0049412
0.130697
0.00444427
0.129931
0.00396804
0.12926
0.00352035
0.128675
0.00310587
0.128167
0.00272672
0.127727
0.00238317
0.127347
0.00207428
0.127018
0.0017982
0.126735
0.00155274
0.126491
0.00133591
0.126283
0.00114442
0.126108
0.000975596
0.125964
0.000833494
0.125843
0.000720657
0.125738
0.000627336
0.125646
0.00054497
0.125565
0.000471168
0.125494
0.000405105
0.125432
0.000346406
0.125379
0.000294774
0.125332
0.000249854
0.125292
0.000211175
0.125258
0.00017815
0.125228
0.000150122
0.125203
0.000126419
0.125182
0.000106409
0.125164
8.95249e-05
0.125148
7.52739e-05
0.125135
6.32395e-05
0.125124
5.3071e-05
0.125114
4.44751e-05
0.125106
3.72056e-05
0.125099
3.1056e-05
0.125093
2.58526e-05
0.125088
2.14487e-05
0.125083
1.77207e-05
0.12508
1.45649e-05
0.125077
1.18939e-05
0.125074
9.63354e-06
0.125072
7.72056e-06
0.12507
6.10153e-06
0.125068
4.731e-06
0.125067
3.57039e-06
0.125065
2.58681e-06
0.125064
1.75189e-06
0.125063
1.04234e-06
0.125062
4.38414e-07
0.125062
-7.67305e-08
0.125061
-5.17107e-07
0.125061
-8.94454e-07
0.12506
-1.21848e-06
0.12506
-1.49726e-06
0.125059
-1.7374e-06
0.125059
-1.94431e-06
0.125058
-2.12234e-06
0.125058
-2.27494e-06
0.125058
-2.40484e-06
0.125058
-2.51415e-06
0.125057
-2.60448e-06
0.125057
-2.67706e-06
0.125057
-2.73276e-06
0.125057
-2.77218e-06
0.125056
-2.79558e-06
0.125056
-2.80284e-06
0.125056
-2.79332e-06
0.125056
-2.76575e-06
0.125056
-2.71806e-06
0.125055
-2.64748e-06
0.125055
-2.55075e-06
0.125055
-2.42489e-06
0.125055
-2.2686e-06
0.125055
-2.08431e-06
0.125055
-1.88076e-06
0.125055
-1.67358e-06
0.125055
-1.486e-06
0.125056
-1.35979e-06
0.125057
-1.35922e-06
0.125057
-1.58382e-06
0.125058
-2.16774e-06
0.125059
-3.26709e-06
0.125059
-5.03999e-06
0.125059
-7.51044e-06
-1.06214e-05
0.149645
0.00620261
0.148058
0.00733816
0.146318
0.00821595
0.144484
0.00882911
0.142617
0.00917642
0.140773
0.00926966
0.139002
0.00913737
0.137337
0.00882041
0.135802
0.00836326
0.134409
0.00780834
0.13316
0.00719428
0.132052
0.00655431
0.131079
0.00591463
0.130229
0.00529426
0.129491
0.0047062
0.128852
0.00415867
0.128302
0.00365599
0.12783
0.00319956
0.127424
0.00278876
0.127077
0.00242164
0.126779
0.00209545
0.126525
0.00180699
0.126308
0.00155292
0.126123
0.00132914
0.125967
0.00113156
0.12584
0.000961247
0.125736
0.000824725
0.125647
0.000715819
0.12557
0.0006223
0.125502
0.000539343
0.125441
0.00046527
0.125388
0.000399357
0.125342
0.000341162
0.125302
0.000290277
0.125267
0.000246215
0.125236
0.000208385
0.12521
0.000176114
0.125188
0.000148703
0.125169
0.000125478
0.125153
0.000105821
0.125139
8.91917e-05
0.125127
7.51212e-05
0.125117
6.32133e-05
0.125108
5.31328e-05
0.125101
4.45974e-05
0.125094
3.7369e-05
0.125089
3.12466e-05
0.125084
2.60602e-05
0.12508
2.16663e-05
0.125077
1.79439e-05
0.125074
1.47904e-05
0.125072
1.2119e-05
0.12507
9.85604e-06
0.125068
7.93905e-06
0.125066
6.31496e-06
0.125065
4.9387e-06
0.125064
3.77195e-06
0.125063
2.78194e-06
0.125062
1.9411e-06
0.125061
1.22621e-06
0.12506
6.17553e-07
0.12506
9.85009e-08
0.125059
-3.44824e-07
0.125059
-7.24053e-07
0.125058
-1.04886e-06
0.125058
-1.32726e-06
0.125057
-1.56588e-06
0.125057
-1.77013e-06
0.125057
-1.9444e-06
0.125056
-2.09225e-06
0.125056
-2.21651e-06