/*--------------------------------*- C++ -*----------------------------------*\
| =========                 |                                                 |
| \\      /  F ield         | OpenFOAM: The Open Source CFD Toolbox           |
|  \\    /   O peration     | Version:  v2012                                 |
|   \\  /    A nd           | Website:  www.openfoam.com                      |
|    \\/     M anipulation  |                                                 |
\*---------------------------------------------------------------------------*/
FoamFile
{
    version     2.0;
    format      ascii;
    class       volVectorField;
    location    "0.2";
    object      U;
}
// * * * * * * * * * * * * * * * * * * * * * * * * * * * * * * * * * * * * * //

dimensions      [0 1 -1 0 0 0 0];


internalField   nonuniform List<vector> 
4736
(
(0.99938 -0.000192239 0)
(1.00119 -0.00195978 0)
(1.00672 -0.00381891 0)
(1.01482 -0.00483447 0)
(1.02408 -0.00519713 0)
(1.03374 -0.00533068 0)
(1.04361 -0.00544198 0)
(1.05372 -0.00556903 0)
(1.06408 -0.00569475 0)
(1.07467 -0.00579263 0)
(1.08538 -0.00583588 0)
(1.0961 -0.00579864 0)
(1.10665 -0.00565702 0)
(1.1168 -0.00539109 0)
(1.12629 -0.00498772 0)
(1.13485 -0.00444284 0)
(1.00016 -0.00106163 0)
(1.00281 -0.00562672 0)
(1.00877 -0.0103316 0)
(1.01708 -0.0131131 0)
(1.02638 -0.0142644 0)
(1.03605 -0.0147516 0)
(1.04599 -0.0151165 0)
(1.05621 -0.0154927 0)
(1.06671 -0.0158518 0)
(1.07747 -0.0161249 0)
(1.0884 -0.016236 0)
(1.09936 -0.01611 0)
(1.11018 -0.0156767 0)
(1.12061 -0.0148772 0)
(1.13039 -0.0136717 0)
(1.13921 -0.0120459 0)
(1.00018 -0.00231618 0)
(1.00278 -0.0100453 0)
(1.00873 -0.0174112 0)
(1.01702 -0.0216563 0)
(1.02624 -0.0234346 0)
(1.03582 -0.0242424 0)
(1.0457 -0.0248944 0)
(1.05595 -0.0255797 0)
(1.06655 -0.0262409 0)
(1.07749 -0.0267604 0)
(1.08869 -0.0270095 0)
(1.10002 -0.0268585 0)
(1.11127 -0.0261838 0)
(1.12219 -0.0248797 0)
(1.13247 -0.0228722 0)
(1.14179 -0.0201341 0)
(1.00015 -0.00357247 0)
(1.00262 -0.014665 0)
(1.00842 -0.0247688 0)
(1.01655 -0.0305324 0)
(1.0256 -0.033013 0)
(1.03502 -0.0342232 0)
(1.04482 -0.0352495 0)
(1.05507 -0.036343 0)
(1.0658 -0.0374179 0)
(1.07701 -0.0383035 0)
(1.08862 -0.0388107 0)
(1.1005 -0.0387442 0)
(1.11245 -0.0379128 0)
(1.12418 -0.0361474 0)
(1.13533 -0.0333253 0)
(1.14551 -0.0293965 0)
(1.00013 -0.00467984 0)
(1.00251 -0.0189401 0)
(1.00808 -0.0316744 0)
(1.01589 -0.0388886 0)
(1.02463 -0.0420618 0)
(1.03381 -0.0437193 0)
(1.04345 -0.0452046 0)
(1.05368 -0.0468232 0)
(1.06456 -0.0484568 0)
(1.07609 -0.0498754 0)
(1.08826 -0.0508201 0)
(1.10091 -0.0510157 0)
(1.11385 -0.0501844 0)
(1.12673 -0.0480709 0)
(1.13915 -0.0444813 0)
(1.15058 -0.0393271 0)
(1.00011 -0.00571082 0)
(1.00237 -0.0230121 0)
(1.00763 -0.038291 0)
(1.01499 -0.0469161 0)
(1.02329 -0.050813 0)
(1.0321 -0.05301 0)
(1.0415 -0.0550903 0)
(1.05164 -0.0574082 0)
(1.06265 -0.059811 0)
(1.07458 -0.0620051 0)
(1.08743 -0.0636506 0)
(1.10109 -0.0643732 0)
(1.11533 -0.0637792 0)
(1.1298 -0.0614903 0)
(1.14397 -0.0572005 0)
(1.15719 -0.0507498 0)
(1.0001 -0.006675 0)
(1.00219 -0.0268125 0)
(1.00703 -0.0444698 0)
(1.01379 -0.0544333 0)
(1.02148 -0.0590829 0)
(1.02976 -0.0619249 0)
(1.03878 -0.0647624 0)
(1.04875 -0.0679934 0)
(1.05984 -0.0714315 0)
(1.07219 -0.0747179 0)
(1.08584 -0.0774215 0)
(1.10074 -0.0790463 0)
(1.11667 -0.079043 0)
(1.13324 -0.0768537 0)
(1.1498 -0.0719923 0)
(1.1655 -0.064165 0)
(1.00009 -0.00755512 0)
(1.00197 -0.0302499 0)
(1.00625 -0.0500546 0)
(1.01223 -0.0612562 0)
(1.01909 -0.0666854 0)
(1.02664 -0.0702925 0)
(1.0351 -0.0740772 0)
(1.04474 -0.0784772 0)
(1.05581 -0.0832795 0)
(1.06854 -0.0880651 0)
(1.08306 -0.0923069 0)
(1.09943 -0.0953626 0)
(1.11749 -0.0964765 0)
(1.13681 -0.0948286 0)
(1.15661 -0.0896393 0)
(1.17573 -0.0803631 0)
(1.00008 -0.00832755 0)
(1.00167 -0.0332196 0)
(1.00525 -0.0548691 0)
(1.01022 -0.0671704 0)
(1.01601 -0.0733956 0)
(1.02259 -0.0778937 0)
(1.03024 -0.082832 0)
(1.03931 -0.0886884 0)
(1.05016 -0.095241 0)
(1.06313 -0.102031 0)
(1.07853 -0.108441 0)
(1.09656 -0.113664 0)
(1.1172 -0.116674 0)
(1.14006 -0.116272 0)
(1.16425 -0.111201 0)
(1.18821 -0.10048 0)
(1.00007 -0.00896172 0)
(1.00129 -0.0355956 0)
(1.00397 -0.0587055 0)
(1.0077 -0.0719256 0)
(1.01215 -0.0789426 0)
(1.01745 -0.0844465 0)
(1.02397 -0.0907395 0)
(1.03214 -0.0983481 0)
(1.04242 -0.107079 0)
(1.05535 -0.116475 0)
(1.07146 -0.125864 0)
(1.09123 -0.134274 0)
(1.1149 -0.140348 0)
(1.1423 -0.142336 0)
(1.17243 -0.138148 0)
(1.20327 -0.126029 0)
(1.00006 -0.0094211 0)
(1.00082 -0.0372314 0)
(1.0024 -0.0613309 0)
(1.00462 -0.0752514 0)
(1.00744 -0.0830231 0)
(1.01113 -0.0896028 0)
(1.0161 -0.0974047 0)
(1.02287 -0.10703 0)
(1.03206 -0.118373 0)
(1.04441 -0.131053 0)
(1.0608 -0.144415 0)
(1.08214 -0.157391 0)
(1.1092 -0.168286 0)
(1.14232 -0.17473 0)
(1.18064 -0.17314 0)
(1.22154 -0.160293 0)
(1.00005 -0.00966517 0)
(1.00024 -0.0379674 0)
(1.00052 -0.0624987 0)
(1.00097 -0.0768731 0)
(1.00185 -0.0853143 0)
(1.00353 -0.0929489 0)
(1.00644 -0.102309 0)
(1.01118 -0.114122 0)
(1.0185 -0.128451 0)
(1.02943 -0.145105 0)
(1.04524 -0.163579 0)
(1.06747 -0.182828 0)
(1.09767 -0.200878 0)
(1.13759 -0.214923 0)
(1.18682 -0.219283 0)
(1.24414 -0.210745 0)
(1.00002 -0.0096514 0)
(0.999577 -0.0376522 0)
(0.998367 -0.0619722 0)
(0.996793 -0.0765027 0)
(0.995405 -0.0854554 0)
(0.994626 -0.0940019 0)
(0.994889 -0.104809 0)
(0.996796 -0.1188 0)
(1.00123 -0.136314 0)
(1.00945 -0.15753 0)
(1.02324 -0.182357 0)
(1.045 -0.210047 0)
(1.07727 -0.238382 0)
(1.12443 -0.263479 0)
(1.18416 -0.275696 0)
(1.26885 -0.275062 0)
(0.999985 -0.00933906 0)
(0.998837 -0.0361682 0)
(0.99602 -0.0595579 0)
(0.992195 -0.0738432 0)
(0.988209 -0.0830421 0)
(0.984541 -0.0922235 0)
(0.981534 -0.10416 0)
(0.979705 -0.120017 0)
(0.979909 -0.140525 0)
(0.983555 -0.166484 0)
(0.992903 -0.198731 0)
(1.01165 -0.237779 0)
(1.04461 -0.282538 0)
(1.10065 -0.328993 0)
(1.17582 -0.356764 0)
(1.30591 -0.376445 0)
(0.999936 -0.00869666 0)
(0.998055 -0.0334441 0)
(0.993577 -0.0551304 0)
(0.987367 -0.0686588 0)
(0.980558 -0.0777191 0)
(0.973657 -0.0871081 0)
(0.966834 -0.099603 0)
(0.960361 -0.116583 0)
(0.954825 -0.139203 0)
(0.951357 -0.169017 0)
(0.952088 -0.208243 0)
(0.961355 -0.260024 0)
(0.987391 -0.327746 0)
(1.04436 -0.419144 0)
(1.16591 -0.498157 0)
(1.35171 -0.696354 0)
(0.999877 -0.00770935 0)
(0.997278 -0.0294678 0)
(0.991171 -0.0486612 0)
(0.982587 -0.0608558 0)
(0.97291 -0.0692948 0)
(0.962631 -0.0783133 0)
(0.951671 -0.090535 0)
(0.939926 -0.107435 0)
(0.927441 -0.130453 0)
(0.914524 -0.161683 0)
(0.901896 -0.204384 0)
(0.891806 -0.263934 0)
(0.888053 -0.34843 0)
(0.906021 -0.481835 0)
(1.01085 -0.635241 0)
(1.11884 -1.16998 0)
(0.999813 -0.00638471 0)
(0.996566 -0.0243055 0)
(0.988968 -0.040248 0)
(0.978188 -0.0505226 0)
(0.965822 -0.0578083 0)
(0.952304 -0.0657809 0)
(0.937275 -0.0767287 0)
(0.920196 -0.0920419 0)
(0.900464 -0.113178 0)
(0.877348 -0.142279 0)
(0.849732 -0.182663 0)
(0.816732 -0.239648 0)
(0.771401 -0.321453 0)
(0.723383 -0.448849 0)
(0.577987 -0.627321 0)
(0.413554 -1.10511 0)
(0.999758 -0.00475564 0)
(0.995995 -0.018115 0)
(0.987157 -0.030132 0)
(0.974532 -0.0379417 0)
(0.959882 -0.0435602 0)
(0.943577 -0.0498146 0)
(0.924999 -0.0584838 0)
(0.903217 -0.0706896 0)
(0.877053 -0.0876386 0)
(0.844918 -0.111071 0)
(0.804419 -0.143563 0)
(0.752798 -0.18884 0)
(0.6802 -0.25205 0)
(0.599891 -0.340459 0)
(0.372344 -0.449024 0)
(0.394668 -0.616322 0)
(0.999754 -0.00288194 0)
(0.995672 -0.0111286 0)
(0.985933 -0.0186695 0)
(0.971953 -0.0235697 0)
(0.955622 -0.0271042 0)
(0.937263 -0.0310839 0)
(0.916067 -0.0366393 0)
(0.890814 -0.0444888 0)
(0.859933 -0.0554082 0)
(0.821298 -0.0704893 0)
(0.771856 -0.0912703 0)
(0.708089 -0.119773 0)
(0.619788 -0.158457 0)
(0.522127 -0.209369 0)
(0.260428 -0.269342 0)
(0.333061 -0.353908 0)
(0.999814 -0.000945927 0)
(0.995637 -0.00372664 0)
(0.98539 -0.00632935 0)
(0.970662 -0.00800661 0)
(0.953417 -0.00920559 0)
(0.933958 -0.0105648 0)
(0.911374 -0.0124745 0)
(0.884291 -0.0151798 0)
(0.85094 -0.0189454 0)
(0.808959 -0.0241388 0)
(0.755055 -0.0312634 0)
(0.685506 -0.0409357 0)
(0.590724 -0.0538445 0)
(0.486197 -0.0700716 0)
(0.217336 -0.0888091 0)
(0.3179 -0.107874 0)
(0.999814 0.000936956 0)
(0.995638 0.0036817 0)
(0.985391 0.00627848 0)
(0.970663 0.00798002 0)
(0.953418 0.00920648 0)
(0.933959 0.0105822 0)
(0.911375 0.012499 0)
(0.884292 0.0152074 0)
(0.850942 0.0189751 0)
(0.808961 0.0241709 0)
(0.755058 0.0312983 0)
(0.68551 0.0409735 0)
(0.590729 0.0538857 0)
(0.486203 0.0701154 0)
(0.217344 0.0888194 0)
(0.317901 0.10773 0)
(0.999754 0.00287194 0)
(0.995673 0.0110821 0)
(0.985934 0.0186185 0)
(0.971954 0.0235432 0)
(0.955623 0.0271049 0)
(0.937265 0.0311009 0)
(0.91607 0.0366633 0)
(0.890818 0.0445157 0)
(0.859938 0.0554371 0)
(0.821305 0.0705203 0)
(0.771864 0.0913039 0)
(0.7081 0.119809 0)
(0.619801 0.158497 0)
(0.522144 0.209412 0)
(0.26045 0.269358 0)
(0.333068 0.353777 0)
(0.999758 0.00474563 0)
(0.995996 0.0180684 0)
(0.987157 0.030081 0)
(0.974533 0.0379149 0)
(0.959884 0.0435601 0)
(0.94358 0.0498305 0)
(0.925003 0.0585065 0)
(0.903222 0.070715 0)
(0.87706 0.0876655 0)
(0.844928 0.111099 0)
(0.804432 0.143594 0)
(0.752813 0.188873 0)
(0.68022 0.252086 0)
(0.599917 0.3405 0)
(0.372378 0.449046 0)
(0.394685 0.616206 0)
(0.999813 0.00637492 0)
(0.996565 0.0242588 0)
(0.988967 0.0401966 0)
(0.978188 0.0504949 0)
(0.965823 0.0578069 0)
(0.952307 0.0657954 0)
(0.937279 0.0767499 0)
(0.920203 0.0920653 0)
(0.900472 0.113202 0)
(0.87736 0.142304 0)
(0.849747 0.18269 0)
(0.816752 0.239678 0)
(0.771426 0.321485 0)
(0.723415 0.448886 0)
(0.57803 0.627347 0)
(0.413579 1.10501 0)
(0.999877 0.00769978 0)
(0.997278 0.0294214 0)
(0.99117 0.0486096 0)
(0.982586 0.0608272 0)
(0.972911 0.0692919 0)
(0.962634 0.0783261 0)
(0.951676 0.0905542 0)
(0.939933 0.107456 0)
(0.92745 0.130475 0)
(0.914536 0.161705 0)
(0.901911 0.204407 0)
(0.891825 0.263959 0)
(0.888079 0.348457 0)
(0.906053 0.481866 0)
(1.01088 0.635271 0)
(1.11889 1.16993 0)
(0.999936 0.00868734 0)
(0.998055 0.0333982 0)
(0.993576 0.0550788 0)
(0.987366 0.0686293 0)
(0.980558 0.0777146 0)
(0.973659 0.0871191 0)
(0.966837 0.0996204 0)
(0.960367 0.116602 0)
(0.954832 0.139222 0)
(0.951367 0.169036 0)
(0.952101 0.208262 0)
(0.961372 0.260044 0)
(0.987414 0.327765 0)
(1.04439 0.419165 0)
(1.16595 0.498173 0)
(1.35175 0.696353 0)
(0.999985 0.00932999 0)
(0.998836 0.036123 0)
(0.996018 0.0595066 0)
(0.992193 0.0738132 0)
(0.988208 0.0830363 0)
(0.984541 0.0922328 0)
(0.981537 0.104176 0)
(0.979708 0.120034 0)
(0.979914 0.140542 0)
(0.983562 0.1665 0)
(0.992913 0.198747 0)
(1.01167 0.237794 0)
(1.04463 0.282551 0)
(1.10067 0.329004 0)
(1.17585 0.356767 0)
(1.30594 0.376441 0)
(1.00002 0.00964258 0)
(0.999576 0.0376079 0)
(0.998365 0.0619216 0)
(0.996791 0.0764726 0)
(0.995402 0.0854486 0)
(0.994625 0.0940098 0)
(0.994889 0.104823 0)
(0.996797 0.118816 0)
(1.00123 0.13633 0)
(1.00946 0.157545 0)
(1.02325 0.182371 0)
(1.04501 0.210059 0)
(1.07728 0.238392 0)
(1.12444 0.263486 0)
(1.18417 0.275697 0)
(1.26886 0.275057 0)
(1.00005 0.00965656 0)
(1.00024 0.0379243 0)
(1.00052 0.0624492 0)
(1.00097 0.0768433 0)
(1.00185 0.0853069 0)
(1.00353 0.0929556 0)
(1.00644 0.102322 0)
(1.01117 0.114137 0)
(1.0185 0.128466 0)
(1.02943 0.145118 0)
(1.04524 0.163591 0)
(1.06747 0.18284 0)
(1.09768 0.200888 0)
(1.1376 0.214931 0)
(1.18682 0.219288 0)
(1.24414 0.210747 0)
(1.00006 0.00941264 0)
(1.00082 0.0371898 0)
(1.0024 0.061283 0)
(1.00461 0.0752221 0)
(1.00743 0.0830152 0)
(1.01112 0.0896087 0)
(1.0161 0.097417 0)
(1.02287 0.107044 0)
(1.03205 0.118387 0)
(1.04441 0.131066 0)
(1.0608 0.144427 0)
(1.08214 0.157402 0)
(1.1092 0.168296 0)
(1.14232 0.174739 0)
(1.18063 0.173147 0)
(1.22153 0.160298 0)
(1.00007 0.00895336 0)
(1.00129 0.0355557 0)
(1.00397 0.0586596 0)
(1.00769 0.0718972 0)
(1.01214 0.0789347 0)
(1.01745 0.0844521 0)
(1.02397 0.0907513 0)
(1.03213 0.0983617 0)
(1.04241 0.107092 0)
(1.05534 0.116488 0)
(1.07145 0.125876 0)
(1.09122 0.134286 0)
(1.1149 0.140358 0)
(1.1423 0.142346 0)
(1.17242 0.138157 0)
(1.20326 0.126037 0)
(1.00008 0.0083193 0)
(1.00167 0.0331817 0)
(1.00524 0.0548255 0)
(1.01021 0.0671435 0)
(1.016 0.0733882 0)
(1.02258 0.0778991 0)
(1.03023 0.0828435 0)
(1.0393 0.0887016 0)
(1.05015 0.0952541 0)
(1.06312 0.102043 0)
(1.07852 0.108453 0)
(1.09655 0.113675 0)
(1.11719 0.116685 0)
(1.14006 0.116282 0)
(1.16424 0.11121 0)
(1.1882 0.100489 0)
(1.00009 0.00754707 0)
(1.00196 0.0302143 0)
(1.00625 0.050014 0)
(1.01222 0.0612313 0)
(1.01908 0.0666789 0)
(1.02663 0.0702981 0)
(1.03509 0.0740884 0)
(1.04473 0.0784901 0)
(1.0558 0.0832922 0)
(1.06853 0.0880772 0)
(1.08306 0.0923184 0)
(1.09943 0.0953736 0)
(1.11748 0.0964871 0)
(1.1368 0.0948388 0)
(1.1566 0.0896491 0)
(1.17573 0.0803726 0)
(1.0001 0.00666728 0)
(1.00219 0.0267797 0)
(1.00702 0.0444326 0)
(1.01378 0.0544109 0)
(1.02147 0.0590777 0)
(1.02975 0.0619308 0)
(1.03877 0.0647734 0)
(1.04874 0.0680058 0)
(1.05983 0.0714438 0)
(1.07218 0.0747296 0)
(1.08583 0.0774328 0)
(1.10073 0.0790571 0)
(1.11667 0.0790535 0)
(1.13323 0.076864 0)
(1.14979 0.0720024 0)
(1.16549 0.0641747 0)
(1.00011 0.00570366 0)
(1.00237 0.0229827 0)
(1.00762 0.038258 0)
(1.01498 0.0468966 0)
(1.02328 0.0508091 0)
(1.03209 0.0530161 0)
(1.04148 0.0551009 0)
(1.05163 0.0574201 0)
(1.06264 0.0598227 0)
(1.07457 0.0620164 0)
(1.08742 0.0636615 0)
(1.10108 0.0643839 0)
(1.11532 0.0637897 0)
(1.12979 0.0615006 0)
(1.14396 0.0572106 0)
(1.15718 0.0507596 0)
(1.00013 0.00467354 0)
(1.00251 0.0189149 0)
(1.00807 0.0316462 0)
(1.01588 0.0388723 0)
(1.02462 0.0420592 0)
(1.0338 0.0437255 0)
(1.04344 0.0452146 0)
(1.05367 0.0468343 0)
(1.06454 0.0484678 0)
(1.07608 0.0498862 0)
(1.08824 0.0508306 0)
(1.1009 0.0510261 0)
(1.11384 0.0501946 0)
(1.12672 0.0480811 0)
(1.13914 0.0444913 0)
(1.15057 0.0393368 0)
(1.00015 0.00356733 0)
(1.00262 0.0146448 0)
(1.00841 0.0247461 0)
(1.01653 0.0305194 0)
(1.02558 0.0330113 0)
(1.03501 0.0342289 0)
(1.0448 0.0352585 0)
(1.05506 0.036353 0)
(1.06579 0.037428 0)
(1.07699 0.0383135 0)
(1.08861 0.0388207 0)
(1.10049 0.0387542 0)
(1.11244 0.0379227 0)
(1.12417 0.0361572 0)
(1.13532 0.033335 0)
(1.1455 0.029406 0)
(1.00018 0.00231267 0)
(1.00278 0.0100308 0)
(1.00872 0.0173946 0)
(1.01701 0.0216467 0)
(1.02623 0.0234336 0)
(1.0358 0.0242473 0)
(1.04569 0.024902 0)
(1.05593 0.0255884 0)
(1.06654 0.0262499 0)
(1.07748 0.0267695 0)
(1.08868 0.0270187 0)
(1.10001 0.0268678 0)
(1.11126 0.0261932 0)
(1.12218 0.0248891 0)
(1.13247 0.0228815 0)
(1.14179 0.0201431 0)
(1.00016 0.00106009 0)
(1.00281 0.00561898 0)
(1.00876 0.0103218 0)
(1.01706 0.0131072 0)
(1.02636 0.0142641 0)
(1.03604 0.0147555 0)
(1.04597 0.0151228 0)
(1.05619 0.0154999 0)
(1.0667 0.0158594 0)
(1.07746 0.0161327 0)
(1.08839 0.016244 0)
(1.09936 0.0161182 0)
(1.11018 0.0156849 0)
(1.12061 0.0148855 0)
(1.13039 0.0136801 0)
(1.13922 0.0120542 0)
(0.99938 0.000191521 0)
(1.00118 0.00195603 0)
(1.00671 0.00381312 0)
(1.0148 0.00482908 0)
(1.02406 0.00519342 0)
(1.03372 0.00532869 0)
(1.04359 0.00544119 0)
(1.05371 0.00556897 0)
(1.06408 0.00569519 0)
(1.07467 0.00579348 0)
(1.08539 0.00583711 0)
(1.09612 0.00580021 0)
(1.10667 0.00565887 0)
(1.11682 0.00539318 0)
(1.12632 0.00499001 0)
(1.13489 0.00444529 0)
(1.14221 -0.00376392 0)
(1.14813 -0.00296043 0)
(1.15236 -0.00198574 0)
(1.15475 -0.0008418 0)
(1.15503 0.00045718 0)
(1.15289 0.00177108 0)
(1.14868 0.00293917 0)
(1.14277 0.00388026 0)
(1.1468 -0.0100103 0)
(1.15282 -0.00763753 0)
(1.15712 -0.00500999 0)
(1.15962 -0.00215122 0)
(1.16048 0.00088205 0)
(1.15996 0.00389271 0)
(1.1579 0.00662658 0)
(1.15425 0.00894008 0)
(1.14981 -0.0166923 0)
(1.1562 -0.0126398 0)
(1.16074 -0.00819407 0)
(1.16326 -0.00356473 0)
(1.16374 0.00104816 0)
(1.1623 0.00551697 0)
(1.15905 0.0097245 0)
(1.15408 0.0135392 0)
(1.15429 -0.0244067 0)
(1.1613 -0.018516 0)
(1.16623 -0.0119936 0)
(1.16892 -0.005178 0)
(1.16934 0.00161211 0)
(1.16759 0.00815852 0)
(1.1638 0.0143072 0)
(1.15812 0.0198785 0)
(1.16051 -0.0326679 0)
(1.16844 -0.0247366 0)
(1.17399 -0.0159284 0)
(1.17695 -0.00672178 0)
(1.17731 0.00244362 0)
(1.17516 0.0112496 0)
(1.17068 0.0194635 0)
(1.1641 0.0268556 0)
(1.16875 -0.0421984 0)
(1.17795 -0.0318751 0)
(1.18429 -0.0203618 0)
(1.18752 -0.00835595 0)
(1.18769 0.00353778 0)
(1.18498 0.0149101 0)
(1.17963 0.0254695 0)
(1.1719 0.0349293 0)
(1.17932 -0.0534018 0)
(1.19026 -0.0401603 0)
(1.1976 -0.0253301 0)
(1.20107 -0.00997051 0)
(1.20088 0.00509404 0)
(1.19739 0.0193988 0)
(1.19092 0.0326369 0)
(1.18173 0.0444674 0)
(1.19273 -0.0669153 0)
(1.20606 -0.0499301 0)
(1.2146 -0.0308686 0)
(1.21816 -0.0114244 0)
(1.21733 0.00731565 0)
(1.21279 0.0249522 0)
(1.20492 0.0412583 0)
(1.1939 0.0558522 0)
(1.20976 -0.0836947 0)
(1.22637 -0.0616295 0)
(1.23624 -0.0368955 0)
(1.23947 -0.0124146 0)
(1.23752 0.0104991 0)
(1.2316 0.0318491 0)
(1.22205 0.051668 0)
(1.20886 0.0695446 0)
(1.23161 -0.104873 0)
(1.25292 -0.0756598 0)
(1.26395 -0.0431625 0)
(1.26579 -0.0124701 0)
(1.26188 0.0150371 0)
(1.25425 0.0403859 0)
(1.24287 0.0641813 0)
(1.22723 0.086032 0)
(1.26011 -0.132118 0)
(1.28804 -0.0910721 0)
(1.29951 -0.0480304 0)
(1.29793 -0.010693 0)
(1.29073 0.0212605 0)
(1.2811 0.0507293 0)
(1.26802 0.0789859 0)
(1.24994 0.105761 0)
(1.3004 -0.174037 0)
(1.3364 -0.11009 0)
(1.34404 -0.048475 0)
(1.33528 -0.00439928 0)
(1.32374 0.0298853 0)
(1.31242 0.0625131 0)
(1.2983 0.0955457 0)
(1.27851 0.128714 0)
(1.36486 -0.226909 0)
(1.41602 -0.135475 0)
(1.40563 -0.0478528 0)
(1.37647 0.00770487 0)
(1.35803 0.0437738 0)
(1.3472 0.0769938 0)
(1.33465 0.113549 0)
(1.31575 0.15448 0)
(1.47877 -0.248855 0)
(1.55156 -0.105155 0)
(1.50688 -0.0240438 0)
(1.43453 0.0172602 0)
(1.39563 0.0503478 0)
(1.38312 0.0840853 0)
(1.37595 0.125678 0)
(1.36666 0.176958 0)
(1.64077 -0.434826 0)
(1.64712 -0.0445657 0)
(1.54722 0.116768 0)
(1.46494 0.121164 0)
(1.42878 0.102846 0)
(1.42171 0.102518 0)
(1.42468 0.131206 0)
(1.43259 0.206877 0)
(1.382 -0.796672 0)
(1.16518 -0.26839 0)
(1.00946 0.00361989 0)
(1.10092 0.0762675 0)
(1.25609 0.0799588 0)
(1.36808 0.0684757 0)
(1.45554 0.0866776 0)
(1.59387 0.0687566 0)
(1.38194 0.796661 0)
(1.16518 0.268252 0)
(1.00951 -0.00369798 0)
(1.10085 -0.0760692 0)
(1.25593 -0.0798257 0)
(1.36789 -0.0685246 0)
(1.45547 -0.0868127 0)
(1.59393 -0.0688786 0)
(1.64081 0.434852 0)
(1.64718 0.0445778 0)
(1.54722 -0.116703 0)
(1.46492 -0.121044 0)
(1.42882 -0.10282 0)
(1.42176 -0.102616 0)
(1.42471 -0.131326 0)
(1.4326 -0.206964 0)
(1.4788 0.24885 0)
(1.55158 0.105136 0)
(1.50688 0.0240671 0)
(1.43457 -0.0171788 0)
(1.39573 -0.0503013 0)
(1.3832 -0.0841127 0)
(1.37597 -0.125731 0)
(1.36664 -0.177006 0)
(1.36486 0.226905 0)
(1.41602 0.135482 0)
(1.40563 0.0478819 0)
(1.37649 -0.00766225 0)
(1.35808 -0.0437523 0)
(1.34724 -0.0770073 0)
(1.33465 -0.113579 0)
(1.31574 -0.15451 0)
(1.30039 0.174041 0)
(1.33639 0.110097 0)
(1.34403 0.0484892 0)
(1.33528 0.00442333 0)
(1.32376 -0.0298681 0)
(1.31243 -0.062514 0)
(1.2983 -0.0955577 0)
(1.2785 -0.128728 0)
(1.2601 0.132123 0)
(1.28803 0.0910795 0)
(1.2995 0.0480422 0)
(1.29792 0.0107091 0)
(1.29073 -0.0212485 0)
(1.2811 -0.0507268 0)
(1.26801 -0.0789903 0)
(1.24993 -0.105768 0)
(1.2316 0.10488 0)
(1.25291 0.0756682 0)
(1.26394 0.0431725 0)
(1.26578 0.0124813 0)
(1.26188 -0.0150282 0)
(1.25425 -0.0403822 0)
(1.24287 -0.064182 0)
(1.22722 -0.0860349 0)
(1.20975 0.0837033 0)
(1.22637 0.0616382 0)
(1.23623 0.0369046 0)
(1.23946 0.0124237 0)
(1.23751 -0.0104916 0)
(1.2316 -0.0318447 0)
(1.22205 -0.0516663 0)
(1.20885 -0.0695445 0)
(1.19272 0.0669245 0)
(1.20605 0.049939 0)
(1.21459 0.0308773 0)
(1.21815 0.0114325 0)
(1.21732 -0.0073088 0)
(1.21278 -0.0249473 0)
(1.20491 -0.0412551 0)
(1.1939 -0.0558503 0)
(1.17931 0.0534111 0)
(1.19026 0.0401692 0)
(1.19759 0.0253384 0)
(1.20106 0.00997811 0)
(1.20087 -0.00508755 0)
(1.19738 -0.0193936 0)
(1.19091 -0.032633 0)
(1.18172 -0.0444645 0)
(1.16874 0.0422078 0)
(1.17794 0.0318839 0)
(1.18428 0.0203698 0)
(1.18751 0.0083632 0)
(1.18768 -0.00353152 0)
(1.18497 -0.0149049 0)
(1.17962 -0.0254653 0)
(1.17189 -0.034926 0)
(1.1605 0.0326772 0)
(1.16843 0.0247452 0)
(1.17398 0.0159362 0)
(1.17694 0.00672879 0)
(1.1773 -0.00243754 0)
(1.17515 -0.0112444 0)
(1.17067 -0.0194591 0)
(1.16409 -0.026852 0)
(1.15428 0.0244157 0)
(1.16129 0.0185244 0)
(1.16623 0.0120012 0)
(1.16891 0.00518473 0)
(1.16933 -0.00160624 0)
(1.16758 -0.00815339 0)
(1.16379 -0.0143028 0)
(1.15811 -0.0198748 0)
(1.1498 0.0167008 0)
(1.1562 0.0126474 0)
(1.16073 0.00820098 0)
(1.16325 0.0035708 0)
(1.16374 -0.00104293 0)
(1.1623 -0.00551241 0)
(1.15904 -0.00972044 0)
(1.15408 -0.0135353 0)
(1.1468 0.0100183 0)
(1.15283 0.00764539 0)
(1.15713 0.00501762 0)
(1.15963 0.00215844 0)
(1.16049 -0.00087536 0)
(1.15997 -0.00388693 0)
(1.15791 -0.00662206 0)
(1.15426 -0.00893663 0)
(1.14226 0.00376654 0)
(1.14819 0.00296333 0)
(1.15241 0.00198833 0)
(1.15481 0.00084442 0)
(1.1551 -0.00045443 0)
(1.15296 -0.00176875 0)
(1.14876 -0.00293776 0)
(1.14286 -0.00388007 0)
(1.13549 0.00456388 0)
(1.12718 0.00501086 0)
(1.11816 0.00526746 0)
(1.10873 0.00536781 0)
(1.09915 0.00533543 0)
(1.08967 0.00519325 0)
(1.08047 0.00496615 0)
(1.0717 0.00467857 0)
(1.06346 0.00435241 0)
(1.05583 0.00400632 0)
(1.04884 0.00365613 0)
(1.04248 0.00331631 0)
(1.03675 0.00298693 0)
(1.03162 0.0026638 0)
(1.02705 0.00235262 0)
(1.02302 0.00205787 0)
(1.01948 0.00178334 0)
(1.01639 0.00153255 0)
(1.01369 0.00130755 0)
(1.01136 0.00110812 0)
(1.00935 0.000933015 0)
(1.00761 0.000782133 0)
(1.00611 0.00065684 0)
(1.00481 0.000556662 0)
(1.00369 0.000476033 0)
(1.00272 0.000407466 0)
(1.00189 0.000346644 0)
(1.00119 0.00029302 0)
(1.00059 0.00024676 0)
(1.00009 0.000207273 0)
(0.99966 0.000173628 0)
(0.999299 0.000144975 0)
(0.998994 0.000120588 0)
(0.998738 9.98395e-05 0)
(0.998524 8.21892e-05 0)
(0.998344 6.71788e-05 0)
(0.998195 5.44178e-05 0)
(0.998071 4.35736e-05 0)
(0.997969 3.43617e-05 0)
(0.997885 2.65386e-05 0)
(0.997817 1.98952e-05 0)
(0.997763 1.42512e-05 0)
(0.99772 9.45089e-06 0)
(0.997686 5.35869e-06 0)
(0.997661 1.85751e-06 0)
(0.997643 -1.15346e-06 0)
(0.997631 -3.74091e-06 0)
(0.997624 -5.95495e-06 0)
(0.99762 -7.87284e-06 0)
(0.99762 -9.33855e-06 0)
(0.997623 -1.02587e-05 0)
(0.997629 -1.09156e-05 0)
(0.997637 -1.1516e-05 0)
(0.997647 -1.21349e-05 0)
(0.997659 -1.27971e-05 0)
(0.997672 -1.34635e-05 0)
(0.997687 -1.40974e-05 0)
(0.997703 -1.46905e-05 0)
(0.997721 -1.52519e-05 0)
(0.99774 -1.57893e-05 0)
(0.997759 -1.63056e-05 0)
(0.99778 -1.68015e-05 0)
(0.997801 -1.72755e-05 0)
(0.997823 -1.77237e-05 0)
(0.997846 -1.81399e-05 0)
(0.997869 -1.85158e-05 0)
(0.997893 -1.88422e-05 0)
(0.997918 -1.91095e-05 0)
(0.997943 -1.93095e-05 0)
(0.997968 -1.94359e-05 0)
(0.997993 -1.94862e-05 0)
(0.998019 -1.94619e-05 0)
(0.998044 -1.93678e-05 0)
(0.998069 -1.92099e-05 0)
(0.998095 -1.89904e-05 0)
(0.998119 -1.86986e-05 0)
(0.998143 -1.82998e-05 0)
(0.998167 -1.77197e-05 0)
(0.998189 -1.68292e-05 0)
(0.99821 -1.5433e-05 0)
(0.998228 -1.32504e-05 0)
(0.998243 -9.97219e-06 0)
(0.998252 -4.78039e-06 0)
(0.998254 2.68783e-06 0)
(0.998245 1.15761e-05 0)
(0.998226 2.1051e-05 0)
(0.998197 3.0123e-05 0)
(0.998162 3.73159e-05 0)
(0.998122 4.02544e-05 0)
(0.998101 3.83444e-05 0)
(0.998055 1.79243e-05 0)
(0.998225 1.14435e-05 0)
(0.997773 -0.000174732 0)
(0.999443 -5.27977e-05 0)
(0.998022 -0.000361564 0)
(0.999398 -0.000578496 0)
(1.1491 0.0108255 0)
(1.14257 0.0123034 0)
(1.13485 0.0133614 0)
(1.12625 0.013997 0)
(1.11705 0.0142386 0)
(1.10755 0.0141351 0)
(1.09798 0.0137463 0)
(1.08858 0.013136 0)
(1.07953 0.0123655 0)
(1.07094 0.0114904 0)
(1.06292 0.0105587 0)
(1.05553 0.00960812 0)
(1.04882 0.00866839 0)
(1.04276 0.00776482 0)
(1.03734 0.00691322 0)
(1.03251 0.00612189 0)
(1.02822 0.00539549 0)
(1.02445 0.00473498 0)
(1.02113 0.00413904 0)
(1.01824 0.00360537 0)
(1.01572 0.00313182 0)
(1.01355 0.00271887 0)
(1.01166 0.00236437 0)
(1.01005 0.00203744 0)
(1.00865 0.00175162 0)
(1.00743 0.00150441 0)
(1.00638 0.00128663 0)
(1.00548 0.00109571 0)
(1.00471 0.000931137 0)
(1.00406 0.000790535 0)
(1.0035 0.000670579 0)
(1.00302 0.000568215 0)
(1.00261 0.000480848 0)
(1.00226 0.000406268 0)
(1.00196 0.000342598 0)
(1.00171 0.000288247 0)
(1.0015 0.000241857 0)
(1.00131 0.000202274 0)
(1.00116 0.000168508 0)
(1.00102 0.000139714 0)
(1.00091 0.000115168 0)
(1.00081 9.42485e-05 0)
(1.00073 7.64221e-05 0)
(1.00066 6.12315e-05 0)
(1.00061 4.8286e-05 0)
(1.00056 3.72544e-05 0)
(1.00051 2.7869e-05 0)
(1.00048 1.99131e-05 0)
(1.00045 1.31898e-05 0)
(1.00043 7.60632e-06 0)
(1.00041 2.98773e-06 0)
(1.00039 -9.95607e-07 0)
(1.00038 -4.52843e-06 0)
(1.00037 -7.66867e-06 0)
(1.00036 -1.03858e-05 0)
(1.00035 -1.27437e-05 0)
(1.00035 -1.48293e-05 0)
(1.00034 -1.66798e-05 0)
(1.00034 -1.83308e-05 0)
(1.00034 -1.98162e-05 0)
(1.00034 -2.11597e-05 0)
(1.00034 -2.23781e-05 0)
(1.00034 -2.34834e-05 0)
(1.00034 -2.44825e-05 0)
(1.00034 -2.5378e-05 0)
(1.00034 -2.61685e-05 0)
(1.00034 -2.68501e-05 0)
(1.00034 -2.74177e-05 0)
(1.00034 -2.78661e-05 0)
(1.00034 -2.8192e-05 0)
(1.00035 -2.83946e-05 0)
(1.00035 -2.84758e-05 0)
(1.00035 -2.8439e-05 0)
(1.00035 -2.82857e-05 0)
(1.00035 -2.80081e-05 0)
(1.00036 -2.75801e-05 0)
(1.00036 -2.69434e-05 0)
(1.00036 -2.59933e-05 0)
(1.00036 -2.45646e-05 0)
(1.00037 -2.24251e-05 0)
(1.00037 -1.927e-05 0)
(1.00037 -1.47645e-05 0)
(1.00037 -8.4266e-06 0)
(1.00038 -1.63009e-07 0)
(1.00038 9.24008e-06 0)
(1.0004 1.85837e-05 0)
(1.00041 2.61948e-05 0)
(1.00043 2.96301e-05 0)
(1.00046 2.45248e-05 0)
(1.00049 6.80919e-06 0)
(1.00051 -4.28028e-05 0)
(1.00062 -9.57968e-05 0)
(1.00041 -0.000318855 0)
(1.00111 -0.000347989 0)
(1.00054 -0.000452698 0)
(1.0005 -0.000565243 0)
(1.14758 0.0168495 0)
(1.13978 0.0195461 0)
(1.13099 0.0215454 0)
(1.12152 0.0228284 0)
(1.11169 0.0234317 0)
(1.10178 0.023429 0)
(1.09205 0.0229163 0)
(1.08268 0.0219991 0)
(1.07381 0.0207822 0)
(1.06554 0.0193623 0)
(1.05792 0.0178227 0)
(1.05097 0.0162312 0)
(1.04469 0.0146521 0)
(1.03905 0.0131343 0)
(1.03403 0.0117024 0)
(1.02957 0.0103711 0)
(1.02565 0.00914766 0)
(1.0222 0.00803239 0)
(1.01919 0.00702254 0)
(1.01657 0.00611438 0)
(1.01429 0.00530283 0)
(1.01232 0.00458443 0)
(1.01065 0.00396718 0)
(1.00922 0.00344555 0)
(1.00796 0.00299691 0)
(1.00687 0.00258994 0)
(1.00591 0.00222139 0)
(1.00509 0.00189583 0)
(1.00439 0.00161484 0)
(1.00379 0.00137473 0)
(1.00327 0.00116989 0)
(1.00283 0.000995054 0)
(1.00246 0.000845748 0)
(1.00214 0.000718193 0)
(1.00186 0.000609208 0)
(1.00163 0.000516094 0)
(1.00142 0.000436555 0)
(1.00125 0.000368627 0)
(1.00111 0.000310634 0)
(1.00098 0.000261138 0)
(1.00087 0.000218909 0)
(1.00078 0.000182893 0)
(1.0007 0.000152188 0)
(1.00063 0.000126021 0)
(1.00058 0.00010373 0)
(1.00053 8.4751e-05 0)
(1.00048 6.85941e-05 0)
(1.00045 5.48375e-05 0)
(1.00042 4.31162e-05 0)
(1.00039 3.30661e-05 0)
(1.00037 2.44259e-05 0)
(1.00035 1.70464e-05 0)
(1.00033 1.07491e-05 0)
(1.00032 5.3685e-06 0)
(1.00031 7.69784e-07 0)
(1.0003 -3.18571e-06 0)
(1.00029 -6.6111e-06 0)
(1.00028 -9.59561e-06 0)
(1.00027 -1.22003e-05 0)
(1.00027 -1.44793e-05 0)
(1.00026 -1.64817e-05 0)
(1.00026 -1.8246e-05 0)
(1.00025 -1.98017e-05 0)
(1.00025 -2.11714e-05 0)
(1.00024 -2.23712e-05 0)
(1.00024 -2.34128e-05 0)
(1.00024 -2.43035e-05 0)
(1.00024 -2.50487e-05 0)
(1.00023 -2.56522e-05 0)
(1.00023 -2.61176e-05 0)
(1.00023 -2.64485e-05 0)
(1.00023 -2.66487e-05 0)
(1.00023 -2.67202e-05 0)
(1.00023 -2.66602e-05 0)
(1.00022 -2.64562e-05 0)
(1.00022 -2.60792e-05 0)
(1.00022 -2.54763e-05 0)
(1.00022 -2.45633e-05 0)
(1.00022 -2.3222e-05 0)
(1.00022 -2.13058e-05 0)
(1.00022 -1.86659e-05 0)
(1.00022 -1.51956e-05 0)
(1.00022 -1.09879e-05 0)
(1.00022 -6.27033e-06 0)
(1.00022 -1.27545e-06 0)
(1.00023 3.19665e-06 0)
(1.00025 5.70392e-06 0)
(1.00026 4.06971e-06 0)
(1.00028 -4.9822e-06 0)
(1.00031 -2.57805e-05 0)
(1.00033 -6.83828e-05 0)
(1.00036 -0.000121582 0)
(1.00024 -0.000259487 0)
(1.00051 -0.000358007 0)
(1.00004 -0.000338921 0)
(0.999972 -0.000305973 0)
(1.15079 0.0246764 0)
(1.14211 0.0285381 0)
(1.13241 0.031364 0)
(1.12208 0.0331324 0)
(1.11146 0.0338992 0)
(1.10088 0.0337812 0)
(1.09061 0.0329305 0)
(1.08085 0.0315103 0)
(1.07171 0.029678 0)
(1.06329 0.0275762 0)
(1.05562 0.0253264 0)
(1.04869 0.0230269 0)
(1.04249 0.0207544 0)
(1.03697 0.0185653 0)
(1.03209 0.016498 0)
(1.0278 0.0145763 0)
(1.02405 0.0128127 0)
(1.02078 0.0112105 0)
(1.01793 0.00976685 0)
(1.01546 0.00847502 0)
(1.01332 0.00732525 0)
(1.01147 0.00630474 0)
(1.00987 0.0054116 0)
(1.00851 0.0046719 0)
(1.00735 0.00406739 0)
(1.00635 0.00353059 0)
(1.00548 0.00303861 0)
(1.00472 0.00260027 0)
(1.00406 0.00221966 0)
(1.0035 0.00189314 0)
(1.00302 0.001614 0)
(1.00261 0.00137545 0)
(1.00226 0.00117153 0)
(1.00196 0.000997172 0)
(1.0017 0.000848089 0)
(1.00148 0.00072063 0)
(1.00129 0.00061168 0)
(1.00112 0.000518575 0)
(1.00098 0.00043903 0)
(1.00086 0.00037109 0)
(1.00076 0.000313078 0)
(1.00068 0.000263558 0)
(1.0006 0.000221297 0)
(1.00054 0.000185242 0)
(1.00048 0.000154487 0)
(1.00043 0.000128258 0)
(1.00039 0.000105889 0)
(1.00036 8.68081e-05 0)
(1.00033 7.05223e-05 0)
(1.0003 5.66013e-05 0)
(1.00028 4.47013e-05 0)
(1.00026 3.45534e-05 0)
(1.00025 2.5901e-05 0)
(1.00023 1.85024e-05 0)
(1.00022 1.21458e-05 0)
(1.00021 6.68127e-06 0)
(1.0002 1.97874e-06 0)
(1.00019 -2.08377e-06 0)
(1.00018 -5.60041e-06 0)
(1.00018 -8.65048e-06 0)
(1.00017 -1.13029e-05 0)
(1.00017 -1.36136e-05 0)
(1.00016 -1.56275e-05 0)
(1.00016 -1.73808e-05 0)
(1.00015 -1.89019e-05 0)
(1.00015 -2.02131e-05 0)
(1.00015 -2.13316e-05 0)
(1.00014 -2.22707e-05 0)
(1.00014 -2.30413e-05 0)
(1.00014 -2.36521e-05 0)
(1.00014 -2.41106e-05 0)
(1.00013 -2.44228e-05 0)
(1.00013 -2.45916e-05 0)
(1.00013 -2.46153e-05 0)
(1.00013 -2.44838e-05 0)
(1.00012 -2.41751e-05 0)
(1.00012 -2.3651e-05 0)
(1.00012 -2.2855e-05 0)
(1.00012 -2.1714e-05 0)
(1.00012 -2.01482e-05 0)
(1.00012 -1.80945e-05 0)
(1.00012 -1.55436e-05 0)
(1.00012 -1.26057e-05 0)
(1.00012 -9.50464e-06 0)
(1.00012 -6.66931e-06 0)
(1.00013 -4.85581e-06 0)
(1.00014 -5.27643e-06 0)
(1.00015 -9.65948e-06 0)