/*--------------------------------*- C++ -*----------------------------------*\
| =========                 |                                                 |
| \\      /  F ield         | OpenFOAM: The Open Source CFD Toolbox           |
|  \\    /   O peration     | Version:  v2012                                 |
|   \\  /    A nd           | Website:  www.openfoam.com                      |
|    \\/     M anipulation  |                                                 |
\*---------------------------------------------------------------------------*/
FoamFile
{
    version     2.0;
    format      ascii;
    class       surfaceVectorField;
    location    "0";
    object      Ufaces;
}
// * * * * * * * * * * * * * * * * * * * * * * * * * * * * * * * * * * * * * //

dimensions      [0 1 -1 0 0 0 0];

oriented        oriented;

internalField   nonuniform List<vector> 
9296
(
(1.0010 -0.0037654 0)
(1.0020 -0.00688133 0)
(1.0030 -0.00400964 0)
(1.0040 -0.00830596 0)
(1.0050 -0.00415022 0)
(1.0060 -0.00860156 0)
(1.0070 -0.00427767 0)
(1.0080 -0.00886918 0)
(1.03818 -0.0044158 0)
(1.03323 -0.00918047 0)
(1.04703 -0.00456455 0)
(1.04158 -0.00953041 0)
(1.0562 -0.00471503 0)
(1.05027 -0.00989931 0)
(1.06569 -0.00485416 0)
(1.05931 -0.010259 0)
(1.07545 -0.00496563 0)
(1.06868 -0.0105742 0)
(1.08541 -0.00503066 0)
(1.07833 -0.0108037 0)
(1.09545 -0.00502905 0)
(1.08814 -0.0109021 0)
(1.10542 -0.00494075 0)
(1.09799 -0.0108231 0)
(1.11513 -0.00474787 0)
(1.10768 -0.0105236 0)
(1.12433 -0.0044371 0)
(1.117 -0.00996849 0)
(1.1328 -0.00400194 0)
(1.1257 -0.00913641 0)
(1.13352 -0.00802395 0)
(1.14027 -0.00344436 0)
(1.00564 -0.00990836 0)
(1.00287 -0.012695 0)
(1.01258 -0.0113672 0)
(1.00934 -0.0154909 0)
(1.01997 -0.0117475 0)
(1.0164 -0.015964 0)
(1.0276 -0.0121377 0)
(1.02369 -0.0164574 0)
(1.0355 -0.0125902 0)
(1.03125 -0.0170659 0)
(1.04374 -0.0130869 0)
(1.03915 -0.017762 0)
(1.05234 -0.0135953 0)
(1.04743 -0.0185032 0)
(1.06131 -0.0140724 0)
(1.0561 -0.0192335 0)
(1.0706 -0.0144662 0)
(1.06516 -0.0198838 0)
(1.08015 -0.0147179 0)
(1.07456 -0.0203735 0)
(1.08984 -0.0147648 0)
(1.08419 -0.0206137 0)
(1.0995 -0.0145451 0)
(1.09393 -0.020513 0)
(1.10893 -0.014004 0)
(1.10357 -0.0199856 0)
(1.11791 -0.0131014 0)
(1.1129 -0.0189615 0)
(1.12618 -0.0118178 0)
(1.12164 -0.0173971 0)
(1.12952 -0.0152848 0)
(1.13347 -0.0101597 0)
(1.00534 -0.0164167 0)
(1.00275 -0.0185342 0)
(1.01189 -0.0185554 0)
(1.00891 -0.0224437 0)
(1.01888 -0.0191039 0)
(1.01564 -0.0230936 0)
(1.02613 -0.0197429 0)
(1.02264 -0.0238266 0)
(1.03369 -0.0205138 0)
(1.02994 -0.0247578 0)
(1.04161 -0.0213729 0)
(1.03762 -0.0258383 0)
(1.04993 -0.022262 0)
(1.04574 -0.0270028 0)
(1.05867 -0.0231078 0)
(1.05433 -0.028167 0)
(1.0678 -0.023822 0)
(1.06339 -0.0292267 0)
(1.07725 -0.024304 0)
(1.07289 -0.0300589 0)
(1.08692 -0.0244458 0)
(1.08274 -0.0305263 0)
(1.09665 -0.02414 0)
(1.0928 -0.0304852 0)
(1.10622 -0.0232906 0)
(1.10286 -0.0297981 0)
(1.11538 -0.0218253 0)
(1.11269 -0.0283503 0)
(1.12387 -0.0197085 0)
(1.12198 -0.0260682 0)
(1.1304 -0.0229355 0)
(1.13138 -0.0169498 0)
(1.00513 -0.0225523 0)
(1.00261 -0.0239798 0)
(1.01141 -0.0254692 0)
(1.00848 -0.0290082 0)
(1.01814 -0.026242 0)
(1.01489 -0.029878 0)
(1.02518 -0.0271698 0)
(1.02162 -0.0308895 0)
(1.03256 -0.0283075 0)
(1.0287 -0.0321917 0)
(1.04038 -0.0295916 0)
(1.03622 -0.033721 0)
(1.04867 -0.0309395 0)
(1.04427 -0.0353917 0)
(1.05748 -0.0322463 0)
(1.0529 -0.0370923 0)
(1.06678 -0.0333846 0)
(1.06213 -0.0386823 0)
(1.07654 -0.0342072 0)
(1.07196 -0.0399925 0)
(1.08665 -0.0345526 0)
(1.0823 -0.0408292 0)
(1.09694 -0.0342572 0)
(1.09302 -0.0409843 0)
(1.10718 -0.0331712 0)
(1.1039 -0.040253 0)
(1.11709 -0.0311789 0)
(1.11466 -0.0384588 0)
(1.12633 -0.0282196 0)
(1.12494 -0.0354828 0)
(1.13433 -0.0312917 0)
(1.13457 -0.0243032 0)
(1.00485 -0.0282837 0)
(1.00243 -0.029073 0)
(1.0108 -0.0319474 0)
(1.00792 -0.0351575 0)
(1.01721 -0.0329764 0)
(1.01393 -0.0362753 0)
(1.02397 -0.0342375 0)
(1.02029 -0.0376106 0)
(1.03114 -0.0358007 0)
(1.02706 -0.0393462 0)
(1.03882 -0.0375877 0)
(1.03437 -0.0414085 0)
(1.04709 -0.0394936 0)
(1.0423 -0.0436957 0)
(1.05601 -0.041383 0)
(1.05096 -0.0460712 0)
(1.06558 -0.0430875 0)
(1.06039 -0.0483583 0)
(1.07579 -0.0444072 0)
(1.07063 -0.050337 0)
(1.08654 -0.0451169 0)
(1.08162 -0.0517474 0)
(1.09766 -0.0449815 0)
(1.09323 -0.0522998 0)
(1.10889 -0.043778 0)
(1.10523 -0.0516979 0)
(1.1199 -0.041328 0)
(1.11729 -0.049675 0)
(1.13027 -0.0375309 0)
(1.12896 -0.0460409 0)
(1.13973 -0.0407307 0)
(1.13959 -0.0323921 0)
(1.00448 -0.0336555 0)
(1.0022 -0.0337644 0)
(1.01 -0.0380428 0)
(1.00719 -0.040838 0)
(1.01598 -0.0393648 0)
(1.01267 -0.042232 0)
(1.02235 -0.0410165 0)
(1.01855 -0.0439422 0)
(1.02921 -0.0430847 0)
(1.0249 -0.0461856 0)
(1.03668 -0.0454805 0)
(1.03188 -0.0488841 0)
(1.04488 -0.0480808 0)
(1.03961 -0.0519257 0)
(1.05388 -0.0507214 0)
(1.04824 -0.0551538 0)
(1.06376 -0.0531912 0)
(1.05787 -0.0583574 0)
(1.07452 -0.0552305 0)
(1.06857 -0.0612629 0)
(1.08608 -0.0565359 0)
(1.08034 -0.0635323 0)
(1.09828 -0.0567774 0)
(1.09307 -0.0647719 0)
(1.11084 -0.0556292 0)
(1.10653 -0.0645582 0)
(1.12334 -0.052817 0)
(1.12032 -0.0624887 0)
(1.13527 -0.0481741 0)
(1.13388 -0.0582565 0)
(1.14654 -0.0517367 0)
(1.14607 -0.0416925 0)
(1.004 -0.0385527 0)
(1.00191 -0.0379389 0)
(1.00897 -0.0436308 0)
(1.00627 -0.045914 0)
(1.01439 -0.0452836 0)
(1.01109 -0.0476106 0)
(1.02025 -0.0473883 0)
(1.01634 -0.0497475 0)
(1.02668 -0.0500518 0)
(1.02212 -0.0525774 0)
(1.03383 -0.0531809 0)
(1.02863 -0.0560261 0)
(1.04185 -0.056641 0)
(1.03603 -0.0599807 0)
(1.0509 -0.0602445 0)
(1.04452 -0.064274 0)
(1.06107 -0.0637385 0)
(1.05429 -0.0686679 0)
(1.07245 -0.0667975 0)
(1.06546 -0.0728363 0)
(1.085 -0.069023 0)
(1.07811 -0.0763535 0)
(1.09857 -0.069959 0)
(1.09221 -0.0786941 0)
(1.11285 -0.0691311 0)
(1.10752 -0.0792583 0)
(1.12735 -0.0661151 0)
(1.12359 -0.0774358 0)
(1.1414 -0.0606316 0)
(1.13971 -0.0727218 0)
(1.15494 -0.0648741 0)
(1.15422 -0.052641 0)
(1.00342 -0.0428465 0)
(1.00155 -0.0414714 0)
(1.00768 -0.0485672 0)
(1.00514 -0.0502344 0)
(1.01239 -0.0505866 0)
(1.00914 -0.0522548 0)
(1.01758 -0.053207 0)
(1.01358 -0.0548651 0)
(1.02342 -0.0565603 0)
(1.01862 -0.058357 0)
(1.03009 -0.0605593 0)
(1.02447 -0.0626714 0)
(1.03781 -0.0650693 0)
(1.03136 -0.0677092 0)
(1.04678 -0.0698896 0)
(1.03955 -0.0733089 0)
(1.05721 -0.0747331 0)
(1.04931 -0.079221 0)
(1.06923 -0.079207 0)
(1.06088 -0.0850775 0)
(1.08292 -0.0828009 0)
(1.07448 -0.0903622 0)
(1.09817 -0.0848937 0)
(1.09016 -0.0943913 0)
(1.11468 -0.0847947 0)
(1.10779 -0.096323 0)
(1.13184 -0.0818403 0)
(1.12686 -0.0952278 0)
(1.14874 -0.0755501 0)
(1.14644 -0.0902559 0)
(1.16521 -0.0809233 0)
(1.16432 -0.0658147 0)
(1.0027 -0.0463967 0)
(1.00113 -0.0442265 0)
(1.00611 -0.0526928 0)
(1.00379 -0.053634 0)
(1.00993 -0.0551072 0)
(1.00678 -0.0559889 0)
(1.01428 -0.0582985 0)
(1.01023 -0.0591061 0)
(1.01933 -0.0624311 0)
(1.01432 -0.0633205 0)
(1.02532 -0.067438 0)
(1.01927 -0.0686039 0)
(1.03252 -0.0732023 0)
(1.02539 -0.074891 0)
(1.04123 -0.0795299 0)
(1.03301 -0.0820522 0)
(1.05176 -0.0861173 0)
(1.04252 -0.0898556 0)
(1.06438 -0.0925143 0)
(1.05432 -0.0979191 0)
(1.07931 -0.0980891 0)
(1.0688 -0.105652 0)
(1.09657 -0.102011 0)
(1.08624 -0.112195 0)
(1.1159 -0.103278 0)
(1.10668 -0.116393 0)
(1.1366 -0.100838 0)
(1.12966 -0.116828 0)
(1.15742 -0.093838 0)
(1.15402 -0.11204 0)
(1.17776 -0.101017 0)
(1.17677 -0.0820045 0)
(1.00185 -0.0490514 0)
(1.00063 -0.0460621 0)
(1.00423 -0.0558314 0)
(1.0022 -0.0559367 0)
(1.00698 -0.0586549 0)
(1.004 -0.05862 0)
(1.01026 -0.0624541 0)
(1.00625 -0.0622537 0)
(1.01428 -0.0674357 0)
(1.00913 -0.0672211 0)
(1.01932 -0.0735725 0)
(1.0129 -0.0735432 0)
(1.02572 -0.080791 0)
(1.01791 -0.0812164 0)
(1.03387 -0.088936 0)
(1.02459 -0.0901796 0)
(1.04422 -0.0977235 0)
(1.03344 -0.100267 0)
(1.05726 -0.106677 0)
(1.04509 -0.111138 0)
(1.07342 -0.115056 0)
(1.0602 -0.12218 0)
(1.09298 -0.121783 0)
(1.07942 -0.132383 0)
(1.11585 -0.125426 0)
(1.10315 -0.140215 0)
(1.14128 -0.124296 0)
(1.13121 -0.143557 0)
(1.16758 -0.116826 0)
(1.16226 -0.139863 0)
(1.19328 -0.126914 0)
(1.19222 -0.102328 0)
(1.00086 -0.0506523 0)
(1.00006 -0.0468361 0)
(1.00205 -0.0577958 0)
(1.00039 -0.0569644 0)
(1.00352 -0.0610192 0)
(1.00082 -0.0599457 0)
(1.0055 -0.0654316 0)
(1.00163 -0.0640692 0)
(1.00821 -0.0712928 0)
(1.00303 -0.0697707 0)
(1.01196 -0.0786391 0)
(1.00528 -0.0771409 0)
(1.01716 -0.0874755 0)
(1.00876 -0.0862694 0)
(1.0243 -0.0977338 0)
(1.01396 -0.0972134 0)
(1.03402 -0.109211 0)
(1.02156 -0.109944 0)
(1.04705 -0.121474 0)
(1.0324 -0.124259 0)
(1.0642 -0.133732 0)
(1.04755 -0.13964 0)
(1.0862 -0.144671 0)
(1.06821 -0.155037 0)
(1.11339 -0.152303 0)
(1.09551 -0.168576 0)
(1.1452 -0.153935 0)
(1.13001 -0.177216 0)
(1.17939 -0.146588 0)
(1.17066 -0.176578 0)
(1.213 -0.161637 0)
(1.21175 -0.128445 0)
(0.999747 -0.0510442 0)
(0.999439 -0.0464177 0)
(0.999566 -0.0583977 0)
(0.998376 -0.0565495 0)
(0.999559 -0.061979 0)
(0.997256 -0.0597674 0)
(0.999987 -0.0669619 0)
(0.996426 -0.0643048 0)
(1.00107 -0.0736694 0)
(0.996055 -0.0706513 0)
(1.00314 -0.0822277 0)
(0.996403 -0.0789849 0)
(1.00663 -0.0927614 0)
(0.997841 -0.0895212 0)
(1.01213 -0.105354 0)
(1.00091 -0.10249 0)
(1.02048 -0.119976 0)
(1.00639 -0.118093 0)
(1.03274 -0.13637 0)
(1.01539 -0.13641 0)
(1.05022 -0.153844 0)
(1.02942 -0.157235 0)
(1.07441 -0.170974 0)
(1.05049 -0.179759 0)
(1.10659 -0.185185 0)
(1.08098 -0.202042 0)
(1.14699 -0.192312 0)
(1.12321 -0.220148 0)
(1.19307 -0.18661 0)
(1.17784 -0.226956 0)
(1.23932 -0.211177 0)
(1.23735 -0.163041 0)
(0.998525 -0.0500879 0)
(0.99877 -0.0447002 0)
(0.996836 -0.0574626 0)
(0.996216 -0.0545518 0)
(0.995167 -0.0613179 0)
(0.993411 -0.0579087 0)
(0.993805 -0.0667644 0)
(0.990749 -0.0627252 0)
(0.992941 -0.0741949 0)
(0.988347 -0.0695379 0)
(0.99287 -0.0838472 0)
(0.986408 -0.0786228 0)
(0.994031 -0.0960073 0)
(0.98525 -0.0903439 0)
(0.997084 -0.110983 0)
(0.98539 -0.105153 0)
(1.003 -0.129049 0)
(0.987638 -0.123577 0)
(1.01318 -0.150321 0)
(0.993261 -0.146163 0)
(1.0296 -0.174512 0)
(1.0042 -0.173343 0)
(1.05486 -0.200471 0)
(1.0234 -0.205102 0)
(1.09206 -0.22535 0)
(1.05512 -0.240255 0)
(1.14378 -0.243244 0)
(1.10511 -0.274901 0)
(1.20867 -0.243333 0)
(1.17967 -0.299289 0)
(1.27739 -0.287542 0)
(1.27299 -0.210932 0)
(0.997231 -0.0476762 0)
(0.998082 -0.0416177 0)
(0.993934 -0.0548492 0)
(0.993986 -0.0508789 0)
(0.990466 -0.0588469 0)
(0.989419 -0.0542404 0)
(0.98711 -0.0645742 0)
(0.984797 -0.0591374 0)
(0.983991 -0.0724899 0)
(0.980158 -0.0661376 0)
(0.981328 -0.0829539 0)
(0.975597 -0.0756089 0)
(0.979489 -0.0964412 0)
(0.97131 -0.0880641 0)
(0.979092 -0.113549 0)
(0.967678 -0.104195 0)
(0.981146 -0.134986 0)
(0.965384 -0.124914 0)
(0.987276 -0.161511 0)
(0.965626 -0.151395 0)
(1.00007 -0.193736 0)
(0.970484 -0.185082 0)
(1.02357 -0.231625 0)
(0.983575 -0.227581 0)
(1.06382 -0.273289 0)
(1.01119 -0.280176 0)
(1.12904 -0.312264 0)
(1.06424 -0.342373 0)
(1.22548 -0.328761 0)
(1.1655 -0.408731 0)
(1.34508 -0.443128 0)
(1.32834 -0.279696 0)
(0.995918 -0.0437528 0)
(0.997405 -0.0371602 0)
(0.990976 -0.050473 0)
(0.991788 -0.0455076 0)
(0.98564 -0.0544341 0)
(0.985466 -0.0487074 0)
(0.980162 -0.0601797 0)
(0.978851 -0.053429 0)
(0.974561 -0.0682169 0)
(0.971875 -0.0602425 0)
(0.968918 -0.0790157 0)
(0.964481 -0.0695809 0)
(0.963436 -0.0932333 0)
(0.956664 -0.0820705 0)
(0.958539 -0.111772 0)
(0.94854 -0.0986012 0)
(0.955037 -0.135853 0)
(0.940438 -0.120435 0)
(0.954431 -0.167109 0)
(0.933093 -0.149377 0)
(0.959486 -0.207645 0)
(0.928019 -0.188042 0)
(0.975318 -0.259948 0)
(0.928316 -0.240301 0)
(1.01146 -0.326232 0)
(0.940376 -0.31207 0)
(1.08855 -0.406684 0)
(0.976885 -0.41239 0)
(1.24523 -0.484975 0)
(1.08871 -0.571654 0)
(1.44043 -0.792224 0)
(1.43045 -0.406768 0)
(0.994652 -0.0383301 0)
(0.996779 -0.0313884 0)
(0.988114 -0.0443305 0)
(0.989746 -0.0385028 0)
(0.98094 -0.0480373 0)
(0.981776 -0.041355 0)
(0.973327 -0.0534709 0)
(0.973262 -0.0456073 0)
(0.965155 -0.0611518 0)
(0.964006 -0.0517919 0)
(0.956311 -0.0716175 0)
(0.953769 -0.0603589 0)
(0.946733 -0.0856492 0)
(0.94229 -0.0719743 0)
(0.936473 -0.104377 0)
(0.929313 -0.0876128 0)
(0.925809 -0.129452 0)
(0.914608 -0.10871 0)
(0.915485 -0.163333 0)
(0.898019 -0.137413 0)
(0.907239 -0.209813 0)
(0.879563 -0.177033 0)
(0.905021 -0.275049 0)
(0.859565 -0.232876 0)
(0.917323 -0.369509 0)
(0.839246 -0.314041 0)
(0.976995 -0.52237 0)
(0.811935 -0.438352 0)
(1.21884 -0.776487 0)
(0.772387 -0.652511 0)
(1.18284 -1.08509 0)
(1.60884 -0.652728 0)
(0.993508 -0.0315036 0)
(0.996242 -0.0244414 0)
(0.985521 -0.0365192 0)
(0.987992 -0.0300301 0)
(0.976658 -0.0397349 0)
(0.978596 -0.0323481 0)
(0.967048 -0.0444879 0)
(0.968415 -0.0358301 0)
(0.956415 -0.0512633 0)
(0.957124 -0.0409253 0)
(0.944421 -0.0605968 0)
(0.944299 -0.0480395 0)
(0.930677 -0.0732835 0)
(0.92941 -0.0577808 0)
(0.914737 -0.0905011 0)
(0.911805 -0.0710495 0)
(0.896081 -0.114017 0)
(0.890638 -0.0891843 0)
(0.874071 -0.146547 0)
(0.864769 -0.114196 0)
(0.84778 -0.192409 0)
(0.832559 -0.149153 0)
(0.815715 -0.25887 0)
(0.791331 -0.198813 0)
(0.768987 -0.359936 0)
(0.736758 -0.270793 0)
(0.675529 -0.525113 0)
(0.646977 -0.379707 0)
(0.748381 -0.858248 0)
(0.474641 -0.552106 0)
(0.894173 -0.848802 0)
(0.992565 -0.0234591 0)
(0.995832 -0.0165374 0)
(0.983376 -0.0272494 0)
(0.986652 -0.0203573 0)
(0.973101 -0.0297449 0)
(0.97616 -0.0219761 0)
(0.961799 -0.033455 0)
(0.964685 -0.0244189 0)
(0.949046 -0.0387761 0)
(0.951796 -0.0280083 0)
(0.934291 -0.0461621 0)
(0.936913 -0.0330468 0)
(0.916829 -0.0562914 0)
(0.91928 -0.0399891 0)
(0.895739 -0.0701716 0)
(0.89791 -0.0495095 0)
(0.869763 -0.0893036 0)
(0.871461 -0.0626049 0)
(0.837094 -0.115934 0)
(0.838051 -0.080746 0)
(0.794926 -0.153422 0)
(0.794948 -0.106085 0)
(0.738693 -0.206762 0)
(0.737938 -0.141699 0)
(0.655418 -0.283974 0)
(0.660774 -0.191787 0)
(0.513051 -0.397703 0)
(0.541857 -0.262896 0)
(0.571836 -0.545809 0)
(0.344089 -0.362744 0)
(0.807174 -0.464883 0)
(0.991891 -0.0144695 0)
(0.995581 -0.00796462 0)
(0.981842 -0.0168417 0)
(0.985829 -0.00984348 0)
(0.970549 -0.0184255 0)
(0.97466 -0.0106415 0)
(0.958017 -0.0207878 0)
(0.962382 -0.0118455 0)
(0.943708 -0.0241888 0)
(0.948496 -0.0136189 0)
(0.926906 -0.0289314 0)
(0.932318 -0.0161155 0)
(0.906667 -0.0354678 0)
(0.912947 -0.0195668 0)
(0.881725 -0.0444651 0)
(0.889189 -0.0243152 0)
(0.850319 -0.0568998 0)
(0.859401 -0.0308625 0)
(0.809953 -0.0741803 0)
(0.821289 -0.0399356 0)
(0.756956 -0.0982694 0)
(0.771607 -0.0525608 0)
(0.685992 -0.131716 0)
(0.705633 -0.0701071 0)
(0.585067 -0.177735 0)
(0.617097 -0.0941973 0)
(0.429216 -0.23959 0)
(0.487211 -0.126806 0)
(0.500981 -0.308794 0)
(0.287934 -0.169017 0)
(0.778863 -0.205194 0)
(0.99154 -0.00488059 0)
(0.995507 -0.0008582 0)
(0.981041 -0.00570997 0)
(0.985588 0.00108458 0)
(0.969216 -0.00625486 0)
(0.974221 0.00116897 0)
(0.956035 -0.00706624 0)
(0.961707 0.00130512 0)
(0.940903 -0.00823664 0)
(0.947527 0.00150565 0)
(0.923012 -0.00987241 0)
(0.930965 0.00178796 0)
(0.901295 -0.0121318 0)
(0.91108 0.00217842 0)
(0.874307 -0.0152469 0)
(0.886614 0.00271612 0)
(0.840048 -0.019553 0)
(0.855841 0.0034583 0)
(0.795725 -0.0255226 0)
(0.816352 0.0044871 0)
(0.737391 -0.033786 0)
(0.764776 0.00591579 0)
(0.659703 -0.0450948 0)
(0.696303 0.00788808 0)
(0.55186 -0.0602445 0)
(0.604784 0.0105574 0)
(0.393023 -0.0797573 0)
(0.47244 0.0140724 0)
(0.473189 -0.0999511 0)
(0.273848 0.0184946 0)
(0.772158 -0.0217074 0)
(0.991539 0.00491379 0)
(0.99558 0.00804344 0)
(0.981041 0.00567054 0)
(0.985828 0.00980837 0)
(0.969215 0.00620895 0)
(0.97466 0.0105959 0)
(0.956035 0.00701971 0)
(0.962382 0.0117995 0)
(0.940902 0.00818871 0)
(0.948495 0.0135719 0)
(0.923011 0.00982184 0)
(0.932315 0.0160665 0)
(0.901293 0.012077 0)
(0.912943 0.0195145 0)
(0.874303 0.0151862 0)
(0.889183 0.0242579 0)
(0.840044 0.0194851 0)
(0.859395 0.0307986 0)
(0.79572 0.025446 0)
(0.821281 0.0398639 0)
(0.737384 0.0336985 0)
(0.771596 0.05248 0)
(0.65969 0.0449895 0)
(0.705616 0.0700137 0)
(0.551838 0.060102 0)
(0.617066 0.0940808 0)
(0.39299 0.0795737 0)
(0.487161 0.126636 0)
(0.473159 0.100185 0)
(0.287864 0.168831 0)
(0.778839 0.206043 0)
(0.99189 0.0145028 0)
(0.995831 0.0166163 0)
(0.981841 0.0168026 0)
(0.986651 0.0203225 0)
(0.970548 0.0183799 0)
(0.976159 0.021931 0)
(0.958015 0.0207417 0)
(0.964683 0.0243735 0)
(0.943705 0.0241413 0)
(0.951794 0.027962 0)
(0.926901 0.0288816 0)
(0.936908 0.0329987 0)
(0.90666 0.0354141 0)
(0.919272 0.039938 0)
(0.881715 0.0444061 0)
(0.897899 0.0494541 0)
(0.850308 0.0568342 0)
(0.871447 0.0625438 0)
(0.809938 0.0741068 0)
(0.838035 0.0806781 0)
(0.756935 0.098186 0)
(0.794927 0.106009 0)
(0.685955 0.131617 0)
(0.737904 0.141612 0)
(0.585004 0.177605 0)
(0.660714 0.191683 0)
(0.429121 0.239425 0)
(0.541759 0.262751 0)
(0.500895 0.309012 0)
(0.343949 0.362588 0)
(0.807121 0.465643 0)
(0.992563 0.0234927 0)
(0.99624 0.0245203 0)
(0.983375 0.0272109 0)
(0.987991 0.0299961 0)
(0.973099 0.0297 0)
(0.978595 0.0323038 0)
(0.961796 0.0334097 0)
(0.968413 0.0357856 0)
(0.949042 0.0387296 0)
(0.95712 0.04088 0)
(0.934283 0.0461137 0)
(0.944291 0.0479928 0)
(0.916817 0.0562399 0)
(0.929399 0.0577317 0)
(0.895723 0.0701158 0)
(0.911789 0.0709971 0)
(0.869744 0.0892425 0)
(0.890619 0.0891277 0)
(0.837072 0.115866 0)
(0.864747 0.114135 0)
(0.794893 0.153347 0)
(0.83253 0.149085 0)
(0.738638 0.206676 0)
(0.791285 0.198739 0)
(0.655324 0.283869 0)
(0.73668 0.270711 0)
(0.512906 0.397576 0)
(0.646846 0.379603 0)
(0.571701 0.546007 0)
(0.474452 0.552013 0)
(0.894093 0.849423 0)
(0.993506 0.0315376 0)
(0.996776 0.0314673 0)
(0.985519 0.0364817 0)
(0.989744 0.0384699 0)
(0.976656 0.0396913 0)
(0.981774 0.041312 0)
(0.967045 0.0444439 0)
(0.97326 0.0455641 0)
(0.956409 0.0512184 0)
(0.964001 0.0517483 0)
(0.944411 0.0605505 0)
(0.95376 0.0603143 0)
(0.930662 0.0732349 0)
(0.942276 0.0719281 0)
(0.914717 0.0904497 0)
(0.929295 0.0875645 0)
(0.896058 0.113962 0)
(0.914585 0.108659 0)
(0.874043 0.146488 0)
(0.897992 0.13736 0)
(0.847741 0.192346 0)
(0.87953 0.176976 0)
(0.815651 0.258805 0)
(0.859516 0.232818 0)
(0.768879 0.359866 0)
(0.839164 0.313985 0)
(0.675362 0.525053 0)
(0.811802 0.438299 0)
(0.748221 0.858432 0)
(0.772203 0.65249 0)
(1.18277 1.08548 0)
(0.994649 0.0383645 0)
(0.997402 0.037239 0)
(0.988112 0.0442944 0)
(0.991786 0.0454761 0)
(0.980938 0.0479952 0)
(0.985464 0.0486661 0)
(0.973323 0.0534286 0)
(0.978849 0.0533877 0)
(0.965148 0.0611091 0)
(0.97187 0.060201 0)
(0.9563 0.0715739 0)
(0.964471 0.0695389 0)
(0.946716 0.0856044 0)
(0.956649 0.0820278 0)
(0.936451 0.104331 0)
(0.94852 0.0985577 0)
(0.925782 0.129404 0)
(0.940413 0.120391 0)
(0.915454 0.163284 0)
(0.933064 0.149332 0)
(0.9072 0.209764 0)
(0.927986 0.187997 0)
(0.904962 0.275004 0)
(0.928271 0.240258 0)
(0.917229 0.369477 0)
(0.940307 0.312037 0)
(0.976863 0.522359 0)
(0.976781 0.412381 0)
(1.21874 0.776562 0)
(1.08858 0.571674 0)
(1.4404 0.792371 0)
(1.60885 0.652856 0)
(0.995915 0.0437878 0)
(0.998078 0.0416961 0)
(0.990974 0.0504387 0)
(0.993984 0.0508491 0)
(0.985638 0.054394 0)
(0.989417 0.0542013 0)
(0.980158 0.0601396 0)
(0.984794 0.0590984 0)
(0.974554 0.0681767 0)
(0.980152 0.0660986 0)
(0.968906 0.0789753 0)
(0.975587 0.0755699 0)
(0.963419 0.0931928 0)
(0.971295 0.0880253 0)
(0.958517 0.111731 0)
(0.967658 0.104157 0)
(0.955011 0.135813 0)
(0.965359 0.124876 0)
(0.954401 0.16707 0)
(0.965598 0.151358 0)
(0.95945 0.207608 0)
(0.970454 0.185047 0)
(0.975271 0.259918 0)
(0.983539 0.22755 0)
(1.0114 0.32622 0)
(1.01114 0.280157 0)
(1.08846 0.406706 0)
(1.06417 0.342379 0)
(1.24516 0.485039 0)
(1.16542 0.408777 0)
(1.34503 0.44321 0)
(1.43042 0.406851 0)
(0.997228 0.0477116 0)
(0.998766 0.044778 0)
(0.993932 0.0548169 0)
(0.996215 0.054524 0)
(0.990463 0.0588092 0)
(0.993409 0.0578719 0)
(0.987106 0.0645367 0)
(0.990746 0.0626887 0)
(0.983984 0.0724527 0)
(0.988342 0.0695017 0)
(0.981316 0.0829172 0)
(0.986398 0.0785872 0)
(0.979472 0.0964053 0)
(0.985236 0.0903091 0)
(0.979071 0.113514 0)
(0.985371 0.10512 0)
(0.981121 0.134953 0)
(0.987615 0.123545 0)
(0.987248 0.16148 0)
(0.993235 0.146134 0)
(1.00004 0.193709 0)
(1.00418 0.173316 0)
(1.02354 0.231605 0)
(1.02337 0.205081 0)
(1.06378 0.273284 0)
(1.05509 0.240243 0)
(1.12899 0.312285 0)
(1.10507 0.274907 0)
(1.22543 0.328816 0)
(1.17963 0.299324 0)
(1.27735 0.287604 0)
(1.32832 0.279767 0)
(0.998522 0.0501236 0)
(0.999435 0.0464945 0)
(0.996834 0.0574325 0)
(0.998375 0.0565237 0)
(0.995165 0.0612827 0)
(0.997254 0.059733 0)
(0.993802 0.0667297 0)
(0.996424 0.0642709 0)
(0.992934 0.0741608 0)
(0.996051 0.0706179 0)
(0.992859 0.083814 0)
(0.996394 0.0789524 0)
(0.994016 0.0959755 0)
(0.997828 0.0894901 0)
(0.997065 0.110954 0)
(1.00089 0.102461 0)
(1.00298 0.129022 0)
(1.00637 0.118066 0)
(1.01316 0.150296 0)
(1.01537 0.136387 0)
(1.02957 0.174491 0)
(1.0294 0.157215 0)
(1.05484 0.200456 0)
(1.05046 0.179743 0)
(1.09203 0.225347 0)
(1.08095 0.202033 0)
(1.14375 0.243257 0)
(1.12319 0.220152 0)
(1.20865 0.243367 0)
(1.17782 0.226975 0)
(1.2393 0.211215 0)
(1.27298 0.210981 0)
(0.999745 0.0510801 0)
(1.00006 0.0469117 0)
(0.999565 0.0583698 0)
(1.00039 0.0569405 0)
(0.999557 0.0619463 0)
(1.00081 0.0599136 0)
(0.999984 0.0669297 0)
(1.00163 0.0640376 0)
(1.00107 0.0736381 0)
(1.00302 0.0697398 0)
(1.00313 0.0821977 0)
(1.00527 0.0771111 0)
(1.00661 0.0927331 0)
(1.00874 0.0862413 0)
(1.01212 0.105328 0)
(1.01395 0.0971875 0)
(1.02046 0.119953 0)
(1.02154 0.109921 0)
(1.03272 0.13635 0)
(1.03238 0.124239 0)
(1.0502 0.153828 0)
(1.04753 0.139623 0)
(1.07439 0.170963 0)
(1.06819 0.155025 0)
(1.10657 0.185181 0)
(1.09549 0.168569 0)
(1.14698 0.192317 0)
(1.13 0.177216 0)
(1.19306 0.186628 0)
(1.17065 0.176588 0)
(1.21299 0.161656 0)
(1.23734 0.163068 0)
(1.00086 0.0506879 0)
(1.00063 0.0461359 0)
(1.00205 0.0577697 0)
(1.0022 0.0559143 0)
(1.00352 0.0609886 0)
(1.004 0.0585898 0)
(1.00549 0.0654017 0)
(1.00625 0.0622241 0)
(1.0082 0.0712638 0)
(1.00912 0.0671923 0)
(1.01195 0.0786115 0)
(1.0129 0.0735157 0)
(1.01715 0.0874498 0)
(1.0179 0.0811904 0)
(1.02428 0.0977105 0)
(1.02457 0.0901559 0)
(1.034 0.10919 0)
(1.03342 0.100246 0)
(1.04703 0.121457 0)
(1.04507 0.111121 0)
(1.06419 0.133719 0)
(1.06019 0.122166 0)
(1.08619 0.144662 0)
(1.07941 0.132372 0)
(1.11338 0.152298 0)
(1.10315 0.140209 0)
(1.14519 0.153936 0)
(1.1312 0.143554 0)
(1.17939 0.146596 0)
(1.16225 0.139866 0)
(1.19328 0.126922 0)
(1.21174 0.128459 0)
(1.00185 0.0490863 0)
(1.00112 0.0442981 0)
(1.00423 0.0558068 0)
(1.00379 0.0536127 0)
(1.00698 0.058626 0)
(1.00678 0.0559602 0)
(1.01026 0.0624259 0)
(1.01023 0.0590781 0)
(1.01428 0.0674085 0)
(1.01431 0.0632933 0)
(1.01932 0.0735466 0)
(1.01927 0.0685778 0)
(1.02571 0.0807669 0)
(1.02538 0.0748664 0)
(1.03386 0.0889143 0)
(1.033 0.0820296 0)
(1.04421 0.0977046 0)
(1.04251 0.0898356 0)
(1.05725 0.106662 0)
(1.0543 0.097902 0)
(1.07341 0.115043 0)
(1.06879 0.105638 0)
(1.09297 0.121774 0)
(1.08623 0.112185 0)
(1.11585 0.12542 0)
(1.10668 0.116385 0)
(1.14127 0.124294 0)
(1.12966 0.116823 0)
(1.16758 0.116827 0)
(1.15402 0.112039 0)
(1.17776 0.101019 0)
(1.19222 0.102333 0)
(1.0027 0.0464304 0)
(1.00155 0.0415401 0)
(1.00611 0.0526692 0)
(1.00514 0.0502138 0)
(1.00993 0.0550795 0)
(1.00914 0.0522271 0)
(1.01428 0.0582715 0)
(1.01358 0.0548381 0)
(1.01932 0.0624049 0)
(1.01862 0.0583307 0)
(1.02531 0.0674131 0)
(1.02447 0.0626461 0)
(1.03251 0.073179 0)
(1.03136 0.0676852 0)
(1.04122 0.0795086 0)
(1.03954 0.0732867 0)
(1.05175 0.0860985 0)
(1.0493 0.0792009 0)
(1.06437 0.0924985 0)
(1.06087 0.0850601 0)
(1.0793 0.0980763 0)
(1.07447 0.0903477 0)
(1.09657 0.102001 0)
(1.09016 0.0943797 0)
(1.1159 0.103271 0)
(1.10778 0.096314 0)
(1.1366 0.100833 0)
(1.12686 0.0952209 0)
(1.15742 0.0938354 0)
(1.14645 0.0902511 0)
(1.16521 0.0809211 0)
(1.17677 0.0820047 0)
(1.00342 0.0428783 0)
(1.00191 0.0380037 0)
(1.00768 0.048544 0)
(1.00627 0.0458935 0)
(1.01239 0.0505596 0)
(1.01109 0.0475835 0)
(1.01758 0.0531806 0)
(1.01634 0.049721 0)
(1.02342 0.0565347 0)
(1.02212 0.0525515 0)
(1.03009 0.0605347 0)
(1.02862 0.0560009 0)
(1.03781 0.065046 0)
(1.03603 0.0599566 0)
(1.04678 0.069868 0)
(1.04452 0.0642513 0)
(1.0572 0.0747137 0)
(1.05428 0.068647 0)
(1.06922 0.0791901 0)
(1.06545 0.0728177 0)
(1.08291 0.0827867 0)
(1.0781 0.0763374 0)
(1.09817 0.0848821 0)
(1.0922 0.0786807 0)
(1.11468 0.0847854 0)
(1.10752 0.0792471 0)
(1.13184 0.0818328 0)
(1.1236 0.0774266 0)
(1.14875 0.0755446 0)
(1.13972 0.0727144 0)
(1.15495 0.0648688 0)
(1.16432 0.0658116 0)
(1.004 0.0385817 0)
(1.0022 0.0338241 0)
(1.00897 0.0436077 0)
(1.00719 0.0408175 0)
(1.01439 0.045257 0)
(1.01267 0.0422053 0)
(1.02025 0.0473622 0)
(1.01855 0.0439161 0)
(1.02668 0.0500262 0)
(1.0249 0.0461597 0)
(1.03382 0.053156 0)
(1.03187 0.0488587 0)
(1.04185 0.0566171 0)
(1.03961 0.051901 0)
(1.05089 0.0602219 0)
(1.04823 0.0551302 0)
(1.06107 0.0637177 0)
(1.05786 0.0583352 0)
(1.07244 0.0667788 0)
(1.06856 0.0612425 0)
(1.08499 0.0690067 0)
(1.08033 0.0635141 0)
(1.09857 0.069945 0)
(1.09307 0.0647559 0)
(1.11285 0.0691192 0)
(1.10653 0.0645443 0)
(1.12736 0.0661051 0)
(1.12032 0.0624768 0)
(1.1414 0.0606235 0)
(1.13389 0.0582465 0)
(1.14655 0.0517288 0)
(1.15423 0.0526351 0)
(1.00448 0.033681 0)
(1.00243 0.029126 0)
(1.01 0.03802 0)
(1.00792 0.0351373 0)
(1.01598 0.0393386 0)
(1.01393 0.0362495 0)
(1.02235 0.0409905 0)
(1.02029 0.037585 0)
(1.02921 0.043059 0)
(1.02707 0.0393205 0)
(1.03668 0.0454551 0)
(1.03436 0.0413828 0)
(1.04487 0.048056 0)
(1.0423 0.0436704 0)
(1.05388 0.0506976 0)
(1.05095 0.0460465 0)
(1.06376 0.0531688 0)
(1.06039 0.0483346 0)
(1.07451 0.0552097 0)
(1.07063 0.0503147 0)
(1.08608 0.0565171 0)
(1.08162 0.0517268 0)
(1.09828 0.0567607 0)
(1.09323 0.0522812 0)
(1.11084 0.0556145 0)
(1.10524 0.0516813 0)
(1.12334 0.0528041 0)
(1.1173 0.0496603 0)
(1.13528 0.0481633 0)
(1.12897 0.0460282 0)
(1.13975 0.0407202 0)
(1.14608 0.041684 0)
(1.00485 0.0283048 0)
(1.00261 0.0240244 0)
(1.01081 0.0319255 0)
(1.00849 0.0289892 0)
(1.01722 0.0329512 0)
(1.0149 0.0298539 0)
(1.02397 0.0342122 0)
(1.02162 0.0308651 0)
(1.03114 0.0357752 0)
(1.0287 0.0321668 0)
(1.03882 0.037562 0)
(1.03622 0.0336956 0)
(1.04709 0.0394681 0)
(1.04427 0.0353662 0)
(1.056 0.041358 0)
(1.0529 0.037067 0)
(1.06558 0.0430635 0)
(1.06213 0.0386575 0)
(1.07579 0.0443844 0)
(1.07196 0.0399687 0)
(1.08654 0.0450957 0)
(1.0823 0.0408066 0)
(1.09766 0.044962 0)
(1.09302 0.0409633 0)
(1.1089 0.0437605 0)
(1.10391 0.0402338 0)
(1.1199 0.0413124 0)
(1.11467 0.0384414 0)
(1.13028 0.0375175 0)
(1.12495 0.0354675 0)
(1.13435 0.0312788 0)
(1.1396 0.032381 0)
(1.00513 0.0225686 0)
(1.00275 0.0185697 0)
(1.01142 0.0254495 0)
(1.00892 0.022428 0)
(1.01814 0.0262192 0)
(1.01564 0.0230733 0)
(1.02518 0.0271462 0)
(1.02264 0.0238052 0)
(1.03256 0.028283 0)
(1.02994 0.0247353 0)
(1.04037 0.0295666 0)
(1.03762 0.0258149 0)
(1.04867 0.0309142 0)
(1.04574 0.0269789 0)
(1.05747 0.032221 0)
(1.05433 0.0281429 0)
(1.06678 0.0333598 0)
(1.06339 0.0292026 0)
(1.07654 0.034183 0)
(1.07289 0.0300353 0)
(1.08665 0.0345296 0)
(1.08274 0.0305034 0)
(1.09695 0.0342357 0)
(1.0928 0.0304633 0)
(1.10719 0.0331514 0)
(1.10287 0.0297776 0)
(1.1171 0.031161 0)
(1.1127 0.0283314 0)
(1.12635 0.0282039 0)
(1.12199 0.0260513 0)
(1.13042 0.0229208 0)
(1.13459 0.0242901 0)
(1.00535 0.0164296 0)
(1.00288 0.0127198 0)
(1.0119 0.018541 0)
(1.00935 0.0154798 0)
(1.01888 0.0190863 0)
(1.0164 0.0159486 0)
(1.02613 0.0197237 0)
(1.02369 0.0164403 0)
(1.03369 0.0204933 0)
(1.03125 0.0170474 0)
(1.04161 0.0213514 0)
(1.03915 0.0177426 0)
(1.04993 0.02224 0)
(1.04742 0.0184832 0)
(1.05867 0.0230854 0)
(1.0561 0.0192132 0)
(1.0678 0.0237995 0)
(1.06516 0.0198634 0)
(1.07725 0.0242817 0)
(1.07456 0.0203531 0)
(1.08693 0.0244241 0)
(1.08419 0.0205935 0)
(1.09665 0.0241191 0)
(1.09393 0.0204932 0)
(1.10623 0.0232707 0)
(1.10358 0.0199664 0)
(1.1154 0.0218069 0)
(1.11291 0.0189431 0)
(1.12389 0.0196919 0)
(1.12165 0.01738 0)
(1.12954 0.0152693 0)
(1.1314 0.0169355 0)
(1.00564 0.00991509 0)
(1.00297 0.00689878 0)
(1.01258 0.0113569 0)
(1.0099 0.00830575 0)
(1.01997 0.0117339 0)
(1.01743 0.0085974 0)
(1.02759 0.0121223 0)
(1.0252 0.00886257 0)
(1.0355 0.0125737 0)
(1.03323 0.00917203 0)
(1.04374 0.0130699 0)
(1.04156 0.00952063 0)
(1.05234 0.013578 0)
(1.05025 0.00988849 0)
(1.06131 0.014055 0)
(1.05928 0.0102473 0)
(1.0706 0.0144489 0)
(1.06864 0.0105617 0)
(1.08015 0.0147006 0)
(1.07828 0.0107905 0)
(1.08983 0.0147474 0)
(1.08808 0.0108883 0)
(1.0995 0.0145276 0)
(1.09792 0.0108089 0)
(1.10894 0.0139867 0)
(1.10761 0.0105092 0)
(1.11792 0.0130844 0)
(1.11692 0.00995436 0)
(1.12619 0.0118015 0)
(1.12561 0.00912304 0)
(1.13342 0.00801181 0)
(1.13348 0.0101445 0)
(1.0059 0.00378128 0)
(1.01342 0.0040207 0)
(1.02138 0.00415788 0)
(1.02963 0.00428241 0)
(1.03816 0.00441809 0)
(1.04699 0.00456465 0)
(1.05614 0.00471303 0)
(1.0656 0.00485015 0)
(1.07534 0.00495973 0)
(1.08528 0.00502312 0)
(1.09529 0.00502024 0)
(1.10524 0.00493117 0)
(1.11492 0.00473818 0)
(1.1241 0.00442802 0)
(1.13254 0.00399416 0)
(1.13999 0.00343845 0)
(1.1465 -0.00277541 0)
(1.1402 -0.00664799 0)
(1.15129 -0.00201453 0)
(1.14551 -0.00504526 0)
(1.15448 -0.00118797 0)
(1.14928 -0.00326928 0)
(1.15597 -0.000326588 0)
(1.15136 -0.00138576 0)
(1.15571 0.000536395 0)
(1.15321 0.000420201 0)
(1.15375 0.00136752 0)
(1.15184 0.00195588 0)
(1.15016 0.00213522 0)
(1.14879 0.00339857 0)
(1.14421 0.00469415 0)
(1.14512 0.00281191 0)
(1.13954 -0.00816123 0)
(1.13626 -0.0126572 0)
(1.14417 -0.00588176 0)
(1.14162 -0.00958644 0)
(1.1472 -0.00340114 0)
(1.1454 -0.00617741 0)
(1.14852 -0.000813063 0)
(1.14745 -0.00255835 0)
(1.14809 0.00178159 0)
(1.14803 0.00100506 0)
(1.14593 0.0042811 0)
(1.14651 0.00426543 0)
(1.14216 0.00658917 0)
(1.14329 0.00732743 0)
(1.1385 0.0100743 0)
(1.13692 0.00862131 0)
(1.13765 -0.0136074 0)
(1.13764 -0.0190014 0)
(1.14244 -0.00978354 0)
(1.1434 -0.0143793 0)
(1.14557 -0.00561555 0)
(1.14746 -0.0092335 0)
(1.14691 -0.00126357 0)
(1.14966 -0.00376344 0)
(1.14643 0.00310063 0)